#!BIOSYM archive 3
#PBC=ON
#Materials Studio Generated CAR File
#!DATE Wed Dec 04 18:46:01 2019
#PBC
459 atoms
2 atom types

0 39.3521 xlo xhi
0 34.0799 ylo yhi
0 30.0000 zlo zhi

# 90.0000   90.0000   90.0000 (P1)

Masses

1 12.0107
2 55.8452

1    1 0.0   0.052883345    1.389341933   13.444832309 
2    1 0.0   1.282636634    3.519337322   13.444832309 
3    1 0.0   0.052883345    2.809338859   13.444832309 
4    1 0.0   1.282636634    0.679343470   13.444832309 
5    1 0.0   2.512389923    1.389341933   13.444832309 
6    1 0.0   3.742143212    3.519337322   13.444832309 
7    1 0.0   2.512389923    2.809338859   13.444832309 
8    1 0.0   3.742143212    0.679343470   13.444832309 
9    1 0.0   4.971896501    1.389341933   13.444832309 
10   1 0.0   6.201649791    3.519337322   13.444832309 
11   1 0.0   4.971896501    2.809338859   13.444832309 
12   1 0.0   6.201649791    0.679343470   13.444832309 
13   1 0.0   7.431403080    1.389341933   13.444832309 
14   1 0.0   8.661156369    3.519337322   13.444832309 
15   1 0.0   7.431403080    2.809338859   13.444832309 
16   1 0.0   8.661156369    0.679343470   13.444832309 
17   1 0.0   0.052883345    5.649332711   13.444832309 
18   1 0.0   1.282636634    7.779328101   13.444832309 
19   1 0.0   0.052883345    7.069329638   13.444832309 
20   1 0.0   1.282636634    4.939334248   13.444832309 
21   1 0.0   2.512389923    5.649332711   13.444832309 
22   1 0.0   3.742143212    7.779328101   13.444832309 
23   1 0.0   2.512389923    7.069329638   13.444832309 
24   1 0.0   3.742143212    4.939334248   13.444832309 
25   1 0.0   4.971896501    5.649332711   13.444832309 
26   1 0.0   6.201649791    7.779328101   13.444832309 
27   1 0.0   4.971896501    7.069329638   13.444832309 
28   1 0.0   6.201649791    4.939334248   13.444832309 
29   1 0.0   7.431403080    5.649332711   13.444832309 
30   1 0.0   8.661156369    7.779328101   13.444832309 
31   1 0.0   7.431403080    7.069329638   13.444832309 
32   1 0.0   8.661156369    4.939334248   13.444832309 
33   1 0.0   0.052883345    9.909323490   13.444832309 
34   1 0.0   1.282636634   12.039318879   13.444832309 
35   1 0.0   0.052883345   11.329320416   13.444832309 
36   1 0.0   1.282636634    9.199325027   13.444832309 
37   1 0.0   2.512389923    9.909323490   13.444832309 
38   1 0.0   3.742143212   12.039318879   13.444832309 
39   1 0.0   2.512389923   11.329320416   13.444832309 
40   1 0.0   3.742143212    9.199325027   13.444832309 
41   1 0.0   4.971896501    9.909323490   13.444832309 
42   1 0.0   6.201649791   12.039318879   13.444832309 
43   1 0.0   4.971896501   11.329320416   13.444832309 
44   1 0.0   6.201649791    9.199325027   13.444832309 
45   1 0.0   7.431403080    9.909323490   13.444832309 
46   1 0.0   8.661156369   12.039318879   13.444832309 
47   1 0.0   7.431403080   11.329320416   13.444832309 
48   1 0.0   8.661156369    9.199325027   13.444832309 
49   1 0.0   0.052883345   14.169314269   13.444832309 
50   1 0.0   1.282636634   16.299309658   13.444832309 
51   1 0.0   0.052883345   15.589311195   13.444832309 
52   1 0.0   1.282636634   13.459315806   13.444832309 
53   1 0.0   2.512389923   14.169314269   13.444832309 
54   1 0.0   3.742143212   16.299309658   13.444832309 
55   1 0.0   2.512389923   15.589311195   13.444832309 
56   1 0.0   3.742143212   13.459315806   13.444832309 
57   1 0.0   4.971896501   14.169314269   13.444832309 
58   1 0.0   6.201649791   16.299309658   13.444832309 
59   1 0.0   4.971896501   15.589311195   13.444832309 
60   1 0.0   6.201649791   13.459315806   13.444832309 
61   1 0.0   7.431403080   14.169314269   13.444832309 
62   1 0.0   8.661156369   16.299309658   13.444832309 
63   1 0.0   7.431403080   15.589311195   13.444832309 
64   1 0.0   8.661156369   13.459315806   13.444832309 
65   1 0.0   9.890909658    1.389341933   13.444832309 
66   1 0.0  11.120662947    3.519337322   13.444832309 
67   1 0.0   9.890909658    2.809338859   13.444832309 
68   1 0.0  11.120662947    0.679343470   13.444832309 
69   1 0.0  12.350416236    1.389341933   13.444832309 
70   1 0.0  13.580169526    3.519337322   13.444832309 
71   1 0.0  12.350416236    2.809338859   13.444832309 
72   1 0.0  13.580169526    0.679343470   13.444832309 
73   1 0.0  14.809922815    1.389341933   13.444832309 
74   1 0.0  16.039676104    3.519337322   13.444832309 
75   1 0.0  14.809922815    2.809338859   13.444832309 
76   1 0.0  16.039676104    0.679343470   13.444832309 
77   1 0.0  17.269429393    1.389341933   13.444832309 
78   1 0.0  18.499182682    3.519337322   13.444832309 
79   1 0.0  17.269429393    2.809338859   13.444832309 
80   1 0.0  18.499182682    0.679343470   13.444832309 
81   1 0.0   9.890909658    5.649332711   13.444832309 
82   1 0.0  11.120662947    7.779328101   13.444832309 
83   1 0.0   9.890909658    7.069329638   13.444832309 
84   1 0.0  11.120662947    4.939334248   13.444832309 
85   1 0.0  12.350416236    5.649332711   13.444832309 
86   1 0.0  13.580169526    7.779328101   13.444832309 
87   1 0.0  12.350416236    7.069329638   13.444832309 
88   1 0.0  13.580169526    4.939334248   13.444832309 
89   1 0.0  14.809922815    5.649332711   13.444832309 
90   1 0.0  16.039676104    7.779328101   13.444832309 
91   1 0.0  14.809922815    7.069329638   13.444832309 
92   1 0.0  16.039676104    4.939334248   13.444832309 
93   1 0.0  17.269429393    5.649332711   13.444832309 
94   1 0.0  18.499182682    7.779328101   13.444832309 
95   1 0.0  17.269429393    7.069329638   13.444832309 
96   1 0.0  18.499182682    4.939334248   13.444832309 
97   1 0.0   9.890909658    9.909323490   13.444832309 
98   1 0.0  11.120662947   12.039318879   13.444832309 
99   1 0.0   9.890909658   11.329320416   13.444832309 
100  1 0.0  11.120662947    9.199325027   13.444832309 
101  1 0.0  12.350416236    9.909323490   13.444832309 
102  1 0.0  13.580169526   12.039318879   13.444832309 
103  1 0.0  12.350416236   11.329320416   13.444832309 
104  1 0.0  13.580169526    9.199325027   13.444832309 
105  1 0.0  14.809922815    9.909323490   13.444832309 
106  1 0.0  16.039676104   12.039318879   13.444832309 
107  1 0.0  14.809922815   11.329320416   13.444832309 
108  1 0.0  16.039676104    9.199325027   13.444832309 
109  1 0.0  17.269429393    9.909323490   13.444832309 
110  1 0.0  18.499182682   12.039318879   13.444832309 
111  1 0.0  17.269429393   11.329320416   13.444832309 
112  1 0.0  18.499182682    9.199325027   13.444832309 
113  1 0.0   9.890909658   14.169314269   13.444832309 
114  1 0.0  11.120662947   16.299309658   13.444832309 
115  1 0.0   9.890909658   15.589311195   13.444832309 
116  1 0.0  11.120662947   13.459315806   13.444832309 
117  1 0.0  12.350416236   14.169314269   13.444832309 
118  1 0.0  12.350416236   15.589311195   13.444832309 
119  1 0.0  19.728935971    1.389341933   13.444832309 
120  1 0.0  20.958689261    3.519337322   13.444832309 
121  1 0.0  19.728935971    2.809338859   13.444832309 
122  1 0.0  20.958689261    0.679343470   13.444832309 
123  1 0.0  22.188442550    1.389341933   13.444832309 
124  1 0.0  23.418195839    3.519337322   13.444832309 
125  1 0.0  22.188442550    2.809338859   13.444832309 
126  1 0.0  23.418195839    0.679343470   13.444832309 
127  1 0.0  24.647949128    1.389341933   13.444832309 
128  1 0.0  25.877702417    3.519337322   13.444832309 
129  1 0.0  24.647949128    2.809338859   13.444832309 
130  1 0.0  25.877702417    0.679343470   13.444832309 
131  1 0.0  27.107455707    1.389341933   13.444832309 
132  1 0.0  28.337208996    3.519337322   13.444832309 
133  1 0.0  27.107455707    2.809338859   13.444832309 
134  1 0.0  28.337208996    0.679343470   13.444832309 
135  1 0.0  19.728935971    5.649332711   13.444832309 
136  1 0.0  20.958689261    7.779328101   13.444832309 
137  1 0.0  19.728935971    7.069329638   13.444832309 
138  1 0.0  20.958689261    4.939334248   13.444832309 
139  1 0.0  22.188442550    5.649332711   13.444832309 
140  1 0.0  23.418195839    7.779328101   13.444832309 
141  1 0.0  22.188442550    7.069329638   13.444832309 
142  1 0.0  23.418195839    4.939334248   13.444832309 
143  1 0.0  24.647949128    5.649332711   13.444832309 
144  1 0.0  25.877702417    7.779328101   13.444832309 
145  1 0.0  24.647949128    7.069329638   13.444832309 
146  1 0.0  25.877702417    4.939334248   13.444832309 
147  1 0.0  27.107455707    5.649332711   13.444832309 
148  1 0.0  28.337208996    7.779328101   13.444832309 
149  1 0.0  27.107455707    7.069329638   13.444832309 
150  1 0.0  28.337208996    4.939334248   13.444832309 
151  1 0.0  19.728935971    9.909323490   13.444832309 
152  1 0.0  20.958689261   12.039318879   13.444832309 
153  1 0.0  19.728935971   11.329320416   13.444832309 
154  1 0.0  20.958689261    9.199325027   13.444832309 
155  1 0.0  22.188442550    9.909323490   13.444832309 
156  1 0.0  23.418195839   12.039318879   13.444832309 
157  1 0.0  22.188442550   11.329320416   13.444832309 
158  1 0.0  23.418195839    9.199325027   13.444832309 
159  1 0.0  24.647949128    9.909323490   13.444832309 
160  1 0.0  25.877702417   12.039318879   13.444832309 
161  1 0.0  24.647949128   11.329320416   13.444832309 
162  1 0.0  25.877702417    9.199325027   13.444832309 
163  1 0.0  27.107455707    9.909323490   13.444832309 
164  1 0.0  28.337208996   12.039318879   13.444832309 
165  1 0.0  27.107455707   11.329320416   13.444832309 
166  1 0.0  28.337208996    9.199325027   13.444832309 
167  1 0.0  27.107455707   14.169314269   13.444832309 
168  1 0.0  28.337208996   16.299309658   13.444832309 
169  1 0.0  27.107455707   15.589311195   13.444832309 
170  1 0.0  28.337208996   13.459315806   13.444832309 
171  1 0.0  29.566962285    1.389341933   13.444832309 
172  1 0.0  30.796715574    3.519337322   13.444832309 
173  1 0.0  29.566962285    2.809338859   13.444832309 
174  1 0.0  30.796715574    0.679343470   13.444832309 
175  1 0.0  32.026468863    1.389341933   13.444832309 
176  1 0.0  33.256222152    3.519337322   13.444832309 
177  1 0.0  32.026468863    2.809338859   13.444832309 
178  1 0.0  33.256222152    0.679343470   13.444832309 
179  1 0.0  34.485975442    1.389341933   13.444832309 
180  1 0.0  35.715728731    3.519337322   13.444832309 
181  1 0.0  34.485975442    2.809338859   13.444832309 
182  1 0.0  35.715728731    0.679343470   13.444832309 
183  1 0.0  36.945482020    1.389341933   13.444832309 
184  1 0.0  38.175235309    3.519337322   13.444832309 
185  1 0.0  36.945482020    2.809338859   13.444832309 
186  1 0.0  38.175235309    0.679343470   13.444832309 
187  1 0.0  29.566962285    5.649332711   13.444832309 
188  1 0.0  30.796715574    7.779328101   13.444832309 
189  1 0.0  29.566962285    7.069329638   13.444832309 
190  1 0.0  30.796715574    4.939334248   13.444832309 
191  1 0.0  32.026468863    5.649332711   13.444832309 
192  1 0.0  33.256222152    7.779328101   13.444832309 
193  1 0.0  32.026468863    7.069329638   13.444832309 
194  1 0.0  33.256222152    4.939334248   13.444832309 
195  1 0.0  34.485975442    5.649332711   13.444832309 
196  1 0.0  35.715728731    7.779328101   13.444832309 
197  1 0.0  34.485975442    7.069329638   13.444832309 
198  1 0.0  35.715728731    4.939334248   13.444832309 
199  1 0.0  36.945482020    5.649332711   13.444832309 
200  1 0.0  38.175235309    7.779328101   13.444832309 
201  1 0.0  36.945482020    7.069329638   13.444832309 
202  1 0.0  38.175235309    4.939334248   13.444832309 
203  1 0.0  29.566962285    9.909323490   13.444832309 
204  1 0.0  30.796715574   12.039318879   13.444832309 
205  1 0.0  29.566962285   11.329320416   13.444832309 
206  1 0.0  30.796715574    9.199325027   13.444832309 
207  1 0.0  32.026468863    9.909323490   13.444832309 
208  1 0.0  33.256222152   12.039318879   13.444832309 
209  1 0.0  32.026468863   11.329320416   13.444832309 
210  1 0.0  33.256222152    9.199325027   13.444832309 
211  1 0.0  34.485975442    9.909323490   13.444832309 
212  1 0.0  35.715728731   12.039318879   13.444832309 
213  1 0.0  34.485975442   11.329320416   13.444832309 
214  1 0.0  35.715728731    9.199325027   13.444832309 
215  1 0.0  36.945482020    9.909323490   13.444832309 
216  1 0.0  38.175235309   12.039318879   13.444832309 
217  1 0.0  36.945482020   11.329320416   13.444832309 
218  1 0.0  38.175235309    9.199325027   13.444832309 
219  1 0.0  29.566962285   14.169314269   13.444832309 
220  1 0.0  30.796715574   16.299309658   13.444832309 
221  1 0.0  29.566962285   15.589311195   13.444832309 
222  1 0.0  30.796715574   13.459315806   13.444832309 
223  1 0.0  32.026468863   14.169314269   13.444832309 
224  1 0.0  33.256222152   16.299309658   13.444832309 
225  1 0.0  32.026468863   15.589311195   13.444832309 
226  1 0.0  33.256222152   13.459315806   13.444832309 
227  1 0.0  34.485975442   14.169314269   13.444832309 
228  1 0.0  35.715728731   16.299309658   13.444832309 
229  1 0.0  34.485975442   15.589311195   13.444832309 
230  1 0.0  35.715728731   13.459315806   13.444832309 
231  1 0.0  36.945482020   14.169314269   13.444832309 
232  1 0.0  38.175235309   16.299309658   13.444832309 
233  1 0.0  36.945482020   15.589311195   13.444832309 
234  1 0.0  38.175235309   13.459315806   13.444832309 
235  1 0.0   0.052883345   18.429305047   13.444832309 
236  1 0.0   1.282636634   20.559300437   13.444832309 
237  1 0.0   0.052883345   19.849301973   13.444832309 
238  1 0.0   1.282636634   17.719306584   13.444832309 
239  1 0.0   2.512389923   18.429305047   13.444832309 
240  1 0.0   3.742143212   20.559300437   13.444832309 
241  1 0.0   2.512389923   19.849301973   13.444832309 
242  1 0.0   3.742143212   17.719306584   13.444832309 
243  1 0.0   4.971896501   18.429305047   13.444832309 
244  1 0.0   6.201649791   20.559300437   13.444832309 
245  1 0.0   4.971896501   19.849301973   13.444832309 
246  1 0.0   6.201649791   17.719306584   13.444832309 
247  1 0.0   7.431403080   18.429305047   13.444832309 
248  1 0.0   8.661156369   20.559300437   13.444832309 
249  1 0.0   7.431403080   19.849301973   13.444832309 
250  1 0.0   8.661156369   17.719306584   13.444832309 
251  1 0.0   0.052883345   22.689295826   13.444832309 
252  1 0.0   1.282636634   24.819291215   13.444832309 
253  1 0.0   0.052883345   24.109292752   13.444832309 
254  1 0.0   1.282636634   21.979297363   13.444832309 
255  1 0.0   2.512389923   22.689295826   13.444832309 
256  1 0.0   3.742143212   24.819291215   13.444832309 
257  1 0.0   2.512389923   24.109292752   13.444832309 
258  1 0.0   3.742143212   21.979297363   13.444832309 
259  1 0.0   4.971896501   22.689295826   13.444832309 
260  1 0.0   6.201649791   24.819291215   13.444832309 
261  1 0.0   4.971896501   24.109292752   13.444832309 
262  1 0.0   6.201649791   21.979297363   13.444832309 
263  1 0.0   7.431403080   22.689295826   13.444832309 
264  1 0.0   8.661156369   24.819291215   13.444832309 
265  1 0.0   7.431403080   24.109292752   13.444832309 
266  1 0.0   8.661156369   21.979297363   13.444832309 
267  1 0.0   0.052883345   26.949286605   13.444832309 
268  1 0.0   1.282636634   29.079281994   13.444832309 
269  1 0.0   0.052883345   28.369283531   13.444832309 
270  1 0.0   1.282636634   26.239288141   13.444832309 
271  1 0.0   2.512389923   26.949286605   13.444832309 
272  1 0.0   3.742143212   29.079281994   13.444832309 
273  1 0.0   2.512389923   28.369283531   13.444832309 
274  1 0.0   3.742143212   26.239288141   13.444832309 
275  1 0.0   4.971896501   26.949286605   13.444832309 
276  1 0.0   6.201649791   29.079281994   13.444832309 
277  1 0.0   4.971896501   28.369283531   13.444832309 
278  1 0.0   6.201649791   26.239288141   13.444832309 
279  1 0.0   7.431403080   26.949286605   13.444832309 
280  1 0.0   8.661156369   29.079281994   13.444832309 
281  1 0.0   7.431403080   28.369283531   13.444832309 
282  1 0.0   8.661156369   26.239288141   13.444832309 
283  1 0.0   0.052883345   31.209277383   13.444832309 
284  1 0.0   1.282636634   33.339272772   13.444832309 
285  1 0.0   0.052883345   32.629274309   13.444832309 
286  1 0.0   1.282636634   30.499278920   13.444832309 
287  1 0.0   2.512389923   31.209277383   13.444832309 
288  1 0.0   3.742143212   33.339272772   13.444832309 
289  1 0.0   2.512389923   32.629274309   13.444832309 
290  1 0.0   3.742143212   30.499278920   13.444832309 
291  1 0.0   4.971896501   31.209277383   13.444832309 
292  1 0.0   6.201649791   33.339272772   13.444832309 
293  1 0.0   4.971896501   32.629274309   13.444832309 
294  1 0.0   6.201649791   30.499278920   13.444832309 
295  1 0.0   7.431403080   31.209277383   13.444832309 
296  1 0.0   8.661156369   33.339272772   13.444832309 
297  1 0.0   7.431403080   32.629274309   13.444832309 
298  1 0.0   8.661156369   30.499278920   13.444832309 
299  1 0.0   9.890909658   18.429305047   13.444832309 
300  1 0.0  11.120662947   20.559300437   13.444832309 
301  1 0.0   9.890909658   19.849301973   13.444832309 
302  1 0.0  11.120662947   17.719306584   13.444832309 
303  1 0.0  12.350416236   18.429305047   13.444832309 
304  1 0.0  12.350416236   19.849301973   13.444832309 
305  1 0.0   9.890909658   22.689295826   13.444832309 
306  1 0.0  11.120662947   24.819291215   13.444832309 
307  1 0.0   9.890909658   24.109292752   13.444832309 
308  1 0.0  11.120662947   21.979297363   13.444832309 
309  1 0.0  12.350416236   22.689295826   13.444832309 
310  1 0.0  12.350416236   24.109292752   13.444832309 
311  1 0.0   9.890909658   26.949286605   13.444832309 
312  1 0.0  11.120662947   29.079281994   13.444832309 
313  1 0.0   9.890909658   28.369283531   13.444832309 
314  1 0.0  11.120662947   26.239288141   13.444832309 
315  1 0.0  12.350416236   26.949286605   13.444832309 
316  1 0.0  13.580169526   29.079281994   13.444832309 
317  1 0.0  12.350416236   28.369283531   13.444832309 
318  1 0.0  13.580169526   26.239288141   13.444832309 
319  1 0.0  14.809922815   26.949286605   13.444832309 
320  1 0.0  16.039676104   29.079281994   13.444832309 
321  1 0.0  14.809922815   28.369283531   13.444832309 
322  1 0.0  16.039676104   26.239288141   13.444832309 
323  1 0.0  17.269429393   26.949286605   13.444832309 
324  1 0.0  18.499182682   29.079281994   13.444832309 
325  1 0.0  17.269429393   28.369283531   13.444832309 
326  1 0.0  18.499182682   26.239288141   13.444832309 
327  1 0.0   9.890909658   31.209277383   13.444832309 
328  1 0.0  11.120662947   33.339272772   13.444832309 
329  1 0.0   9.890909658   32.629274309   13.444832309 
330  1 0.0  11.120662947   30.499278920   13.444832309 
331  1 0.0  12.350416236   31.209277383   13.444832309 
332  1 0.0  13.580169526   33.339272772   13.444832309 
333  1 0.0  12.350416236   32.629274309   13.444832309 
334  1 0.0  13.580169526   30.499278920   13.444832309 
335  1 0.0  14.809922815   31.209277383   13.444832309 
336  1 0.0  16.039676104   33.339272772   13.444832309 
337  1 0.0  14.809922815   32.629274309   13.444832309 
338  1 0.0  16.039676104   30.499278920   13.444832309 
339  1 0.0  17.269429393   31.209277383   13.444832309 
340  1 0.0  18.499182682   33.339272772   13.444832309 
341  1 0.0  17.269429393   32.629274309   13.444832309 
342  1 0.0  18.499182682   30.499278920   13.444832309 
343  1 0.0  27.107455707   18.429305047   13.444832309 
344  1 0.0  28.337208996   20.559300437   13.444832309 
345  1 0.0  27.107455707   19.849301973   13.444832309 
346  1 0.0  28.337208996   17.719306584   13.444832309 
347  1 0.0  27.107455707   22.689295826   13.444832309 
348  1 0.0  28.337208996   24.819291215   13.444832309 
349  1 0.0  27.107455707   24.109292752   13.444832309 
350  1 0.0  28.337208996   21.979297363   13.444832309 
351  1 0.0  19.728935971   26.949286605   13.444832309 
352  1 0.0  20.958689261   29.079281994   13.444832309 
353  1 0.0  19.728935971   28.369283531   13.444832309 
354  1 0.0  20.958689261   26.239288141   13.444832309 
355  1 0.0  22.188442550   26.949286605   13.444832309 
356  1 0.0  23.418195839   29.079281994   13.444832309 
357  1 0.0  22.188442550   28.369283531   13.444832309 
358  1 0.0  23.418195839   26.239288141   13.444832309 
359  1 0.0  24.647949128   26.949286605   13.444832309 
360  1 0.0  25.877702417   29.079281994   13.444832309 
361  1 0.0  24.647949128   28.369283531   13.444832309 
362  1 0.0  25.877702417   26.239288141   13.444832309 
363  1 0.0  27.107455707   26.949286605   13.444832309 
364  1 0.0  28.337208996   29.079281994   13.444832309 
365  1 0.0  27.107455707   28.369283531   13.444832309 
366  1 0.0  28.337208996   26.239288141   13.444832309 
367  1 0.0  19.728935971   31.209277383   13.444832309 
368  1 0.0  20.958689261   33.339272772   13.444832309 
369  1 0.0  19.728935971   32.629274309   13.444832309 
370  1 0.0  20.958689261   30.499278920   13.444832309 
371  1 0.0  22.188442550   31.209277383   13.444832309 
372  1 0.0  23.418195839   33.339272772   13.444832309 
373  1 0.0  22.188442550   32.629274309   13.444832309 
374  1 0.0  23.418195839   30.499278920   13.444832309 
375  1 0.0  24.647949128   31.209277383   13.444832309 
376  1 0.0  25.877702417   33.339272772   13.444832309 
377  1 0.0  24.647949128   32.629274309   13.444832309 
378  1 0.0  25.877702417   30.499278920   13.444832309 
379  1 0.0  27.107455707   31.209277383   13.444832309 
380  1 0.0  28.337208996   33.339272772   13.444832309 
381  1 0.0  27.107455707   32.629274309   13.444832309 
382  1 0.0  28.337208996   30.499278920   13.444832309 
383  1 0.0  29.566962285   18.429305047   13.444832309 
384  1 0.0  30.796715574   20.559300437   13.444832309 
385  1 0.0  29.566962285   19.849301973   13.444832309 
386  1 0.0  30.796715574   17.719306584   13.444832309 
387  1 0.0  32.026468863   18.429305047   13.444832309 
388  1 0.0  33.256222152   20.559300437   13.444832309 
389  1 0.0  32.026468863   19.849301973   13.444832309 
390  1 0.0  33.256222152   17.719306584   13.444832309 
391  1 0.0  34.485975442   18.429305047   13.444832309 
392  1 0.0  35.715728731   20.559300437   13.444832309 
393  1 0.0  34.485975442   19.849301973   13.444832309 
394  1 0.0  35.715728731   17.719306584   13.444832309 
395  1 0.0  36.945482020   18.429305047   13.444832309 
396  1 0.0  38.175235309   20.559300437   13.444832309 
397  1 0.0  36.945482020   19.849301973   13.444832309 
398  1 0.0  38.175235309   17.719306584   13.444832309 
399  1 0.0  29.566962285   22.689295826   13.444832309 
400  1 0.0  30.796715574   24.819291215   13.444832309 
401  1 0.0  29.566962285   24.109292752   13.444832309 
402  1 0.0  30.796715574   21.979297363   13.444832309 
403  1 0.0  32.026468863   22.689295826   13.444832309 
404  1 0.0  33.256222152   24.819291215   13.444832309 
405  1 0.0  32.026468863   24.109292752   13.444832309 
406  1 0.0  33.256222152   21.979297363   13.444832309 
407  1 0.0  34.485975442   22.689295826   13.444832309 
408  1 0.0  35.715728731   24.819291215   13.444832309 
409  1 0.0  34.485975442   24.109292752   13.444832309 
410  1 0.0  35.715728731   21.979297363   13.444832309 
411  1 0.0  36.945482020   22.689295826   13.444832309 
412  1 0.0  38.175235309   24.819291215   13.444832309 
413  1 0.0  36.945482020   24.109292752   13.444832309 
414  1 0.0  38.175235309   21.979297363   13.444832309 
415  1 0.0  29.566962285   26.949286605   13.444832309 
416  1 0.0  30.796715574   29.079281994   13.444832309 
417  1 0.0  29.566962285   28.369283531   13.444832309 
418  1 0.0  30.796715574   26.239288141   13.444832309 
419  1 0.0  32.026468863   26.949286605   13.444832309 
420  1 0.0  33.256222152   29.079281994   13.444832309 
421  1 0.0  32.026468863   28.369283531   13.444832309 
422  1 0.0  33.256222152   26.239288141   13.444832309 
423  1 0.0  34.485975442   26.949286605   13.444832309 
424  1 0.0  35.715728731   29.079281994   13.444832309 
425  1 0.0  34.485975442   28.369283531   13.444832309 
426  1 0.0  35.715728731   26.239288141   13.444832309 
427  1 0.0  36.945482020   26.949286605   13.444832309 
428  1 0.0  38.175235309   29.079281994   13.444832309 
429  1 0.0  36.945482020   28.369283531   13.444832309 
430  1 0.0  38.175235309   26.239288141   13.444832309 
431  1 0.0  29.566962285   31.209277383   13.444832309 
432  1 0.0  30.796715574   33.339272772   13.444832309 
433  1 0.0  29.566962285   32.629274309   13.444832309 
434  1 0.0  30.796715574   30.499278920   13.444832309 
435  1 0.0  32.026468863   31.209277383   13.444832309 
436  1 0.0  33.256222152   33.339272772   13.444832309 
437  1 0.0  32.026468863   32.629274309   13.444832309 
438  1 0.0  33.256222152   30.499278920   13.444832309 
439  1 0.0  34.485975442   31.209277383   13.444832309 
440  1 0.0  35.715728731   33.339272772   13.444832309 
441  1 0.0  34.485975442   32.629274309   13.444832309 
442  1 0.0  35.715728731   30.499278920   13.444832309 
443  1 0.0  36.945482020   31.209277383   13.444832309 
444  1 0.0  38.175235309   33.339272772   13.444832309 
445  1 0.0  36.945482020   32.629274309   13.444832309 
446  1 0.0  38.175235309   30.499278920   13.444832309 
1   2 0.0  21.503389582   17.848557469   12.847090136  
2   2 0.0  22.858430663   17.848557469   10.948590136  
3   2 0.0  23.820439589  -17.305643058   12.879359451  
4   2 0.0  21.503389582   20.195557469   12.847090136  
5   2 0.0  22.858430663   20.195557469   10.948590136  
6   2 0.0  23.535951204   19.022057469   12.847090136  
7   2 0.0  24.890992286   19.022057469   10.948590136  
8   2 0.0  25.568512827   17.848557469   12.847090136  
9   2 0.0  23.535951204   21.369057469   12.847090136  
10  2 0.0  25.568512827   20.195557469   12.847090136  
11  2 0.0  22.858430663   17.848557469   14.745590136  
12  2 0.0  22.858430663   20.195557469   14.745590136  
13  2 0.0  24.890992286   19.022057469   14.745590136  


