 Job started on host Stu23
 at Mon Nov  4 19:16:33 2019

 +-------------------------------------------------+
 |                                                 |
 |      CCC   AA    SSS  TTTTT  EEEEE  PPPP        |
 |     C     A  A  S       T    E      P   P       |
 |     C     AAAA   SS     T    EEE    PPPP        |
 |     C     A  A     S    T    E      P           |
 |      CCC  A  A  SSS     T    EEEEE  P           |
 |                                                 |
 +-------------------------------------------------+
 |                                                 |
 | Welcome to Materials Studio CASTEP version 7.0  |
 | Ab Initio Total Energy Program                  |
 |                                                 |
 | Authors:                                        |
 | M. Segall, M. Probert, C. Pickard, P. Hasnip,   |
 | S. Clark, K. Refson, J. R. Yates, M. Payne      |
 |                                                 |
 | Contributors:                                   |
 | P. Lindan, P. Haynes, J. White, V. Milman,      |
 | N. Govind, M. Gibson, P. Tulip, V. Cocula,      |
 | B. Montanari, D. Quigley, M. Glover,            |
 | L. Bernasconi, A. Perlov, M. Plummer,           |
 | E. McNellis, J. Meyer, J. Gale, D. Jochym       |
 | J. Aarons, B. Walker, R. Gillen, D. Jones       |
 |                                                 |
 | Copyright (c) 2000 - 2013                       |
 |                                                 |
 | Please cite                                     |
 |                                                 |
 |     "First principles methods using CASTEP"     |
 |                                                 |
 |         Zeitschrift fuer Kristallographie       |
 |           220(5-6) pp. 567-570 (2005)           |
 |                                                 |
 | S. J. Clark, M. D. Segall, C. J. Pickard,       |
 | P. J. Hasnip, M. J. Probert, K. Refson,         |
 | M. C. Payne                                     |
 |                                                 |
 |       in all publications arising from          |
 |              your use of CASTEP                 |
 |                                                 |
 +-------------------------------------------------+
 
 
 This version was compiled for x86_64-windows-msvc2008 on Nov 12 2013
 Code version: 6201
 
License checkout of MS_castep successful
 
 +---------------------------------------------------+
 |                                                   |
 |  Using DFT-SEDC - the DFT Semi-Empirical          |
 |  Dispersion interaction Correction module         |
 |  Copyright (c) 2008 Erik McNellis and Joerg Meyer |
 |  Fritz-Haber-Institut der MPG. Distributed under  |
 |  the GNU Lesser General Public License (LGPL).    |
 |                                                   |
 | Please cite the following publications in all     |
 | work arising from your use of CASTEP SEDC.        |
 |                                                   |
 | Erik R. McNellis, Joerg Meyer, and Karsten Reuter |
 | Phys. Rev. B 80, 205414 (2009)                    |
 +---------------------------------------------------+
 
 
 Pseudo atomic calculation performed for Fe 3d6 4s2
 
 Converged in 35 iterations to a total energy of -855.8900 eV
 
 Calculation not parallelised.

 ************************************ Title ************************************
 CASTEP calculation from Materials Studio

 ***************************** General Parameters ******************************
  
 output verbosity                               : normal  (1)
 write checkpoint data to                       : HCP-Fe__0_0_1_.check
 type of calculation                            : geometry optimization
 stress calculation                             : on
 density difference calculation                 : off
 electron localisation func (ELF) calculation   : off
 Hirshfeld analysis                             : on
 unlimited duration calculation
 timing information                             : on
 memory usage estimate                          : on
 write final potential to formatted file        : off
 write final density to formatted file          : off
 write BibTeX reference list                    : on
  
 output         length unit                     : A
 output           mass unit                     : amu
 output           time unit                     : ps
 output         charge unit                     : e
 output         energy unit                     : eV
 output          force unit                     : eV/A
 output       velocity unit                     : A/ps
 output       pressure unit                     : GPa
 output     inv_length unit                     : 1/A
 output      frequency unit                     : cm-1
 output force constant unit                     : eV/A**2
 output         volume unit                     : A**3
 output   IR intensity unit                     : (D/A)**2/amu
 output         dipole unit                     : D
 output         efield unit                     : eV/A/e
 output        entropy unit                     : J/mol/K
  
 wavefunctions paging                           : none
 random number generator seed                   : randomised (191635706)
 data distribution                              : optimal for this architecture
 optimization strategy                          : balance speed and memory

 *********************** Exchange-Correlation Parameters ***********************
  
 using functional                               : Perdew Burke Ernzerhof
 Divergence correction                          : off
 DFT+D: Semi-empirical dispersion correction    : on
 SEDC with                                      : G06 correction scheme

 ************************* Pseudopotential Parameters **************************
  
 pseudopotential representation                 : reciprocal space
 <beta|phi> representation                      : reciprocal space

 **************************** Basis Set Parameters *****************************
  
 plane wave basis set cut-off                   :   400.0000   eV
 size of standard grid                          :     1.7500
 size of   fine   gmax                          :    17.9311   1/A
 largest prime factor in FFT                    :          5
 finite basis set correction                    : automatic
 number of sample energies                      :          3
           sample  spacing                      :     5.0000   eV

 **************************** Electronic Parameters ****************************
  
 number of  electrons                           :  32.00    
 net charge of system                           :  0.000    
 net spin   of system                           :  0.000    
 number of  up  spins                           :  16.00    
 number of down spins                           :  16.00    
 treating system as non-spin-polarized
 number of bands                                :         20

 ********************* Electronic Minimization Parameters **********************
  
 Method: Treating system as metallic with density mixing treatment of electrons,
         and number of  SD  steps               :          1
         and number of  CG  steps               :          4
  
 total energy / atom convergence tol.           : 0.1000E-05   eV
 eigen-energy convergence tolerance             : 0.2000E-06   eV
 max force / atom convergence tol.              : ignored
 convergence tolerance window                   :          3   cycles
 max. number of SCF cycles                      :        100
 number of fixed-spin iterations                :         10
 smearing scheme                                : Gaussian
 smearing width                                 : 0.1000       eV
 Fermi energy convergence tolerance             : 0.2721E-13   eV
 periodic dipole correction                     : NONE

 ************************** Density Mixing Parameters **************************
  
 density-mixing scheme                          : Pulay
 max. length of mixing history                  :         20
 charge density mixing amplitude                : 0.5000    
 cut-off energy for mixing                      :  400.0       eV
 charge density mixing g-vector                 :  1.500       1/A

 *********************** Population Analysis Parameters ************************
  
 Population analysis with cutoff                :  3.000       A

 ********************** Geometry Optimization Parameters ***********************
  
 optimization method                            : BFGS
 variable cell method                           : fixed basis quality
 max. number of steps                           :        100
 estimated bulk modulus                         :  500.0       GPa
 estimated <frequency>                          :  1668.       cm-1
 geom line minimiser                            : on
 with line minimiser tolerance                  :     0.4000
 total energy convergence tolerance             : 0.1000E-04   eV/atom
        max ionic |force| tolerance             : 0.2000E-01   eV/A
 max ionic |displacement| tolerance             : 0.1000E-02   A
   max |stress component| tolerance             : 0.5000E-01   GPa
 convergence tolerance window                   :          2   steps
 backup results every                           :          5   steps

 *******************************************************************************
  
 
                           -------------------------------
                                      Unit Cell
                           -------------------------------
        Real Lattice(A)                      Reciprocal Lattice(1/A)
   4.0651232  -2.3470000   0.0000000        1.5456322   0.0000000   0.0000000
   0.0000000   4.6940000   0.0000000        0.7728161   1.3385567   0.0000000
   0.0000000   0.0000000  20.0000000        0.0000000   0.0000000   0.3141593
 
                       Lattice parameters(A)       Cell Angles
                    a =    4.694000          alpha =   90.000000
                    b =    4.694000          beta  =   90.000000
                    c =   20.000000          gamma =  120.000000
 
                       Current cell volume =  381.633770       A**3
 
                           -------------------------------
                                     Cell Contents
                           -------------------------------
                         Total number of ions in cell =    4
                      Total number of species in cell =    1
                        Max number of any one species =    4
 
            xxxxxxxxxxxxxxxxxxxxxxxxxxxxxxxxxxxxxxxxxxxxxxxxxxxxxxxxxxxx
            x  Element    Atom        Fractional coordinates of atoms  x
            x            Number           u          v          w      x
            x----------------------------------------------------------x
            x  Fe           1         0.333333   0.166667   0.000000   x 
            x  Fe           2         0.833333   0.166667   0.000000   x 
            x  Fe           3         0.333333   0.666667   0.000000   x 
            x  Fe           4         0.833333   0.666667   0.000000   x 
            xxxxxxxxxxxxxxxxxxxxxxxxxxxxxxxxxxxxxxxxxxxxxxxxxxxxxxxxxxxx
 
 
                         No user defined ionic velocities
 
                           -------------------------------
                                   Details of Species
                           -------------------------------
 
                               Mass of species in AMU
                                    Fe   55.8470001
 
                          Electric Quadrupole Moment (Barn)
                                    Fe    0.1600000 Isotope 57
 
                          Files used for pseudopotentials:
                                    Fe Fe_00PBE.uspcc
 
                           -------------------------------
                              k-Points For BZ Sampling
                           -------------------------------
                       MP grid size for SCF calculation is  3  3  1
                         Number of kpoints used =           5
 
             +++++++++++++++++++++++++++++++++++++++++++++++++++++++
             +  Number       Fractional coordinates        Weight  +
             +-----------------------------------------------------+
             +     1   0.333333   0.333333   0.000000   0.2222222  +
             +     2   0.333333   0.000000   0.000000   0.2222222  +
             +     3   0.333333  -0.333333   0.000000   0.2222222  +
             +     4   0.000000   0.333333   0.000000   0.2222222  +
             +     5   0.000000   0.000000   0.000000   0.1111111  +
             +++++++++++++++++++++++++++++++++++++++++++++++++++++++
 
                           -------------------------------
                               Symmetry and Constraints
                           -------------------------------
 
                      Cell is a supercell containing 4 primitive cells
                      Maximum deviation from symmetry =  0.00000         ANG
 
         There are no symmetry operations specified or generated for this cell
         There are no ionic constraints specified or generated for this cell
                      Point group of crystal =     1: C1, 1, 1
 
 
                         Centre of mass is NOT constrained
 
                         Number of cell constraints= 0
                         Cell constraints are:  1 2 3 4 5 6
 
                         External pressure/stress (GPa)
                          0.00000   0.00000   0.00000
                                    0.00000   0.00000
                                              0.00000
 
                                --------------------
                                  DFT-D parameters
                                --------------------
 
                          Dispersion-correction scheme : G06                                                                             
                        Parameter s6 :   0.750000 (default)
                        Parameter d :  20.000000 (default)
 
        xxxxxxxxxxxxxxxxxxxxxxxxxxxxxxxxxxxxxxxxxxxxxxxxxxxxxxxxxxxxxxxxxxxx
        x              Atomic DFT-D parameters                             x
        x  Species      C6            R0                                   x
        x               eV A^6        Ang                                  x
        x------------------------------------------------------------------x
        x  Fe          111.9341       1.5620   (default)                   x
        xxxxxxxxxxxxxxxxxxxxxxxxxxxxxxxxxxxxxxxxxxxxxxxxxxxxxxxxxxxxxxxxxxxx
 
  
+---------------- MEMORY AND SCRATCH DISK ESTIMATES PER PROCESS --------------+
|                                                     Memory          Disk    |
| Model and support data                               76.8 MB        52.5 MB |
| Electronic energy minimisation requirements          22.6 MB        10.6 MB |
|                                               ----------------------------- |
| Approx. total storage required per process           99.4 MB        63.1 MB |
|                                                                             |
| Requirements will fluctuate during execution and may exceed these estimates |
+-----------------------------------------------------------------------------+
Calculating finite basis set correction with  3 cut-off energies.
Calculating total energy with cut-off of  390.000eV.
------------------------------------------------------------------------ <-- SCF
SCF loop      Energy           Fermi           Energy gain       Timer   <-- SCF
                               energy          per atom          (sec)   <-- SCF
------------------------------------------------------------------------ <-- SCF
Initial  -9.40324241E+002  0.00000000E+000                         0.61  <-- SCF
      1  -3.28351406E+003 -1.10632816E+000   5.85797455E+002       2.50  <-- SCF
 Warning: There are no empty bands for at least one kpoint and spin; this may
          slow the convergence and/or lead to an inaccurate groundstate.
          If this warning persists, you should consider increasing nextra_bands
          and/or reducing smearing_width in the param file.
          Recommend using nextra_bands of 7 to 15.                              
  
      2  -3.43765764E+003 -8.61454172E+000   3.85358952E+001       3.95  <-- SCF
 Warning: There are no empty bands for at least one kpoint and spin; this may
          slow the convergence and/or lead to an inaccurate groundstate.
          If this warning persists, you should consider increasing nextra_bands
          and/or reducing smearing_width in the param file.
          Recommend using nextra_bands of 7 to 15.                              
  
      3  -3.45269527E+003 -8.72875320E+000   3.75940674E+000       6.06  <-- SCF
 Warning: There are no empty bands for at least one kpoint and spin; this may
          slow the convergence and/or lead to an inaccurate groundstate.
          If this warning persists, you should consider increasing nextra_bands
          and/or reducing smearing_width in the param file.
          Recommend using nextra_bands of 7 to 15.                              
  
      4  -3.45430986E+003 -8.65456083E+000   4.03647353E-001       7.98  <-- SCF
 Warning: There are no empty bands for at least one kpoint and spin; this may
          slow the convergence and/or lead to an inaccurate groundstate.
          If this warning persists, you should consider increasing nextra_bands
          and/or reducing smearing_width in the param file.
          Recommend using nextra_bands of 7 to 15.                              
  
      5  -3.45312440E+003 -7.91141661E+000  -2.96365054E-001       9.98  <-- SCF
 Warning: There are no empty bands for at least one kpoint and spin; this may
          slow the convergence and/or lead to an inaccurate groundstate.
          If this warning persists, you should consider increasing nextra_bands
          and/or reducing smearing_width in the param file.
          Recommend using nextra_bands of 7 to 15.                              
  
      6  -3.45339445E+003 -8.13595500E+000   6.75130596E-002      12.34  <-- SCF
 Warning: There are no empty bands for at least one kpoint and spin; this may
          slow the convergence and/or lead to an inaccurate groundstate.
          If this warning persists, you should consider increasing nextra_bands
          and/or reducing smearing_width in the param file.
          Recommend using nextra_bands of 7 to 15.                              
  
      7  -3.45269175E+003 -8.09347835E+000  -1.75675383E-001      14.53  <-- SCF
 Warning: There are no empty bands for at least one kpoint and spin; this may
          slow the convergence and/or lead to an inaccurate groundstate.
          If this warning persists, you should consider increasing nextra_bands
          and/or reducing smearing_width in the param file.
          Recommend using nextra_bands of 7 to 15.                              
  
      8  -3.45261592E+003 -7.65061084E+000  -1.89565450E-002      16.81  <-- SCF
 Warning: There are no empty bands for at least one kpoint and spin; this may
          slow the convergence and/or lead to an inaccurate groundstate.
          If this warning persists, you should consider increasing nextra_bands
          and/or reducing smearing_width in the param file.
          Recommend using nextra_bands of 7 to 15.                              
  
      9  -3.45224561E+003 -7.56916674E+000  -9.25778985E-002      19.16  <-- SCF
 Warning: There are no empty bands for at least one kpoint and spin; this may
          slow the convergence and/or lead to an inaccurate groundstate.
          If this warning persists, you should consider increasing nextra_bands
          and/or reducing smearing_width in the param file.
          Recommend using nextra_bands of 7 to 15.                              
  
     10  -3.45232150E+003 -7.37077928E+000   1.89732749E-002      21.25  <-- SCF
 Warning: There are no empty bands for at least one kpoint and spin; this may
          slow the convergence and/or lead to an inaccurate groundstate.
          If this warning persists, you should consider increasing nextra_bands
          and/or reducing smearing_width in the param file.
          Recommend using nextra_bands of 7 to 15.                              
  
     11  -3.45244588E+003 -7.29226437E+000   3.10944114E-002      23.69  <-- SCF
 Warning: There are no empty bands for at least one kpoint and spin; this may
          slow the convergence and/or lead to an inaccurate groundstate.
          If this warning persists, you should consider increasing nextra_bands
          and/or reducing smearing_width in the param file.
          Recommend using nextra_bands of 7 to 15.                              
  
     12  -3.45221461E+003 -7.19182246E+000  -5.78172662E-002      25.95  <-- SCF
 Warning: There are no empty bands for at least one kpoint and spin; this may
          slow the convergence and/or lead to an inaccurate groundstate.
          If this warning persists, you should consider increasing nextra_bands
          and/or reducing smearing_width in the param file.
          Recommend using nextra_bands of 7 to 15.                              
  
     13  -3.45231553E+003 -7.07523315E+000   2.52290037E-002      27.75  <-- SCF
 Warning: There are no empty bands for at least one kpoint and spin; this may
          slow the convergence and/or lead to an inaccurate groundstate.
          If this warning persists, you should consider increasing nextra_bands
          and/or reducing smearing_width in the param file.
          Recommend using nextra_bands of 7 to 15.                              
  
     14  -3.45230460E+003 -6.94754724E+000  -2.73313625E-003      29.81  <-- SCF
 Warning: There are no empty bands for at least one kpoint and spin; this may
          slow the convergence and/or lead to an inaccurate groundstate.
          If this warning persists, you should consider increasing nextra_bands
          and/or reducing smearing_width in the param file.
          Recommend using nextra_bands of 7 to 15.                              
  
     15  -3.45228833E+003 -6.73766597E+000  -4.06587814E-003      31.67  <-- SCF
 Warning: There are no empty bands for at least one kpoint and spin; this may
          slow the convergence and/or lead to an inaccurate groundstate.
          If this warning persists, you should consider increasing nextra_bands
          and/or reducing smearing_width in the param file.
          Recommend using nextra_bands of 7 to 15.                              
  
     16  -3.45228697E+003 -6.61939087E+000  -3.40199953E-004      33.66  <-- SCF
 Warning: There are no empty bands for at least one kpoint and spin; this may
          slow the convergence and/or lead to an inaccurate groundstate.
          If this warning persists, you should consider increasing nextra_bands
          and/or reducing smearing_width in the param file.
          Recommend using nextra_bands of 7 to 15.                              
  
     17  -3.45228151E+003 -6.56692828E+000  -1.36536481E-003      35.33  <-- SCF
 Warning: There are no empty bands for at least one kpoint and spin; this may
          slow the convergence and/or lead to an inaccurate groundstate.
          If this warning persists, you should consider increasing nextra_bands
          and/or reducing smearing_width in the param file.
          Recommend using nextra_bands of 7 to 15.                              
  
     18  -3.45227566E+003 -6.42359569E+000  -1.46323663E-003      37.05  <-- SCF
 Warning: There are no empty bands for at least one kpoint and spin; this may
          slow the convergence and/or lead to an inaccurate groundstate.
          If this warning persists, you should consider increasing nextra_bands
          and/or reducing smearing_width in the param file.
          Recommend using nextra_bands of 7 to 15.                              
  
     19  -3.45227855E+003 -6.34824281E+000   7.23134260E-004      38.95  <-- SCF
 Warning: There are no empty bands for at least one kpoint and spin; this may
          slow the convergence and/or lead to an inaccurate groundstate.
          If this warning persists, you should consider increasing nextra_bands
          and/or reducing smearing_width in the param file.
          Recommend using nextra_bands of 7 to 15.                              
  
     20  -3.45228113E+003 -6.29604177E+000   6.45863015E-004      40.83  <-- SCF
 Warning: There are no empty bands for at least one kpoint and spin; this may
          slow the convergence and/or lead to an inaccurate groundstate.
          If this warning persists, you should consider increasing nextra_bands
          and/or reducing smearing_width in the param file.
          Recommend using nextra_bands of 7 to 15.                              
  
     21  -3.45228231E+003 -6.23455183E+000   2.93057270E-004      42.62  <-- SCF
 Warning: There are no empty bands for at least one kpoint and spin; this may
          slow the convergence and/or lead to an inaccurate groundstate.
          If this warning persists, you should consider increasing nextra_bands
          and/or reducing smearing_width in the param file.
          Recommend using nextra_bands of 7 to 15.                              
  
     22  -3.45228251E+003 -6.15581603E+000   5.17095871E-005      44.48  <-- SCF
 Warning: There are no empty bands for at least one kpoint and spin; this may
          slow the convergence and/or lead to an inaccurate groundstate.
          If this warning persists, you should consider increasing nextra_bands
          and/or reducing smearing_width in the param file.
          Recommend using nextra_bands of 7 to 15.                              
  
     23  -3.45228248E+003 -6.11554867E+000  -8.81303188E-006      46.16  <-- SCF
 Warning: There are no empty bands for at least one kpoint and spin; this may
          slow the convergence and/or lead to an inaccurate groundstate.
          If this warning persists, you should consider increasing nextra_bands
          and/or reducing smearing_width in the param file.
          Recommend using nextra_bands of 7 to 15.                              
  
     24  -3.45228199E+003 -6.05142449E+000  -1.20883988E-004      47.86  <-- SCF
 Warning: There are no empty bands for at least one kpoint and spin; this may
          slow the convergence and/or lead to an inaccurate groundstate.
          If this warning persists, you should consider increasing nextra_bands
          and/or reducing smearing_width in the param file.
          Recommend using nextra_bands of 7 to 15.                              
  
     25  -3.45228365E+003 -6.01224911E+000   4.13262783E-004      49.41  <-- SCF
 Warning: There are no empty bands for at least one kpoint and spin; this may
          slow the convergence and/or lead to an inaccurate groundstate.
          If this warning persists, you should consider increasing nextra_bands
          and/or reducing smearing_width in the param file.
          Recommend using nextra_bands of 7 to 15.                              
  
     26  -3.45228496E+003 -5.98650693E+000   3.29493651E-004      50.81  <-- SCF
 Warning: There are no empty bands for at least one kpoint and spin; this may
          slow the convergence and/or lead to an inaccurate groundstate.
          If this warning persists, you should consider increasing nextra_bands
          and/or reducing smearing_width in the param file.
          Recommend using nextra_bands of 7 to 15.                              
  
     27  -3.45228540E+003 -5.98736043E+000   1.09979634E-004      51.92  <-- SCF
 Warning: There are no empty bands for at least one kpoint and spin; this may
          slow the convergence and/or lead to an inaccurate groundstate.
          If this warning persists, you should consider increasing nextra_bands
          and/or reducing smearing_width in the param file.
          Recommend using nextra_bands of 7 to 15.                              
  
     28  -3.45228589E+003 -5.98396738E+000   1.20448904E-004      53.16  <-- SCF
 Warning: There are no empty bands for at least one kpoint and spin; this may
          slow the convergence and/or lead to an inaccurate groundstate.
          If this warning persists, you should consider increasing nextra_bands
          and/or reducing smearing_width in the param file.
          Recommend using nextra_bands of 7 to 15.                              
  
     29  -3.45228591E+003 -5.98348139E+000   4.86496442E-006      54.23  <-- SCF
 Warning: There are no empty bands for at least one kpoint and spin; this may
          slow the convergence and/or lead to an inaccurate groundstate.
          If this warning persists, you should consider increasing nextra_bands
          and/or reducing smearing_width in the param file.
          Recommend using nextra_bands of 7 to 15.                              
  
     30  -3.45228605E+003 -5.98341989E+000   3.68821690E-005      55.36  <-- SCF
 Warning: There are no empty bands for at least one kpoint and spin; this may
          slow the convergence and/or lead to an inaccurate groundstate.
          If this warning persists, you should consider increasing nextra_bands
          and/or reducing smearing_width in the param file.
          Recommend using nextra_bands of 7 to 15.                              
  
     31  -3.45228609E+003 -5.98322620E+000   8.37219572E-006      56.44  <-- SCF
 Warning: There are no empty bands for at least one kpoint and spin; this may
          slow the convergence and/or lead to an inaccurate groundstate.
          If this warning persists, you should consider increasing nextra_bands
          and/or reducing smearing_width in the param file.
          Recommend using nextra_bands of 7 to 15.                              
  
     32  -3.45228611E+003 -5.98325524E+000   6.53746737E-006      57.53  <-- SCF
 Warning: There are no empty bands for at least one kpoint and spin; this may
          slow the convergence and/or lead to an inaccurate groundstate.
          If this warning persists, you should consider increasing nextra_bands
          and/or reducing smearing_width in the param file.
          Recommend using nextra_bands of 7 to 15.                              
  
     33  -3.45228612E+003 -5.98331946E+000   1.57846113E-006      58.61  <-- SCF
 Warning: There are no empty bands for at least one kpoint and spin; this may
          slow the convergence and/or lead to an inaccurate groundstate.
          If this warning persists, you should consider increasing nextra_bands
          and/or reducing smearing_width in the param file.
          Recommend using nextra_bands of 7 to 15.                              
  
     34  -3.45228612E+003 -5.98342980E+000   8.01220978E-007      59.69  <-- SCF
 Warning: There are no empty bands for at least one kpoint and spin; this may
          slow the convergence and/or lead to an inaccurate groundstate.
          If this warning persists, you should consider increasing nextra_bands
          and/or reducing smearing_width in the param file.
          Recommend using nextra_bands of 7 to 15.                              
  
     35  -3.45228612E+003 -5.98342443E+000  -1.97611851E-008      60.77  <-- SCF
------------------------------------------------------------------------ <-- SCF
 
Final energy, E             =  -3452.194197408     eV
Final free energy (E-TS)    =  -3452.286122756     eV
(energies not corrected for finite basis set)
 
NB est. 0K energy (E-0.5TS)      =  -3452.240160082     eV
 

Dispersion corrected final energy*, Ecor          =  -3452.613362273     eV
Dispersion corrected final free energy* (Ecor-TS) =  -3452.705287621     eV
NB dispersion corrected est. 0K energy* (Ecor-0.5TS) =  -3452.659324947     eV

 * not corrected for finite basis set

Calculating total energy with cut-off of  395.000eV.
------------------------------------------------------------------------ <-- SCF
SCF loop      Energy           Fermi           Energy gain       Timer   <-- SCF
                               energy          per atom          (sec)   <-- SCF
------------------------------------------------------------------------ <-- SCF
Initial  -3.45219420E+003  0.00000000E+000                        61.42  <-- SCF
 Warning: There are no empty bands for at least one kpoint and spin; this may
          slow the convergence and/or lead to an inaccurate groundstate.
          If this warning persists, you should consider increasing nextra_bands
          and/or reducing smearing_width in the param file.
          Recommend using nextra_bands of 7 to 15.                              
  
      1  -3.45228663E+003 -5.98349049E+000   2.31086006E-002      62.86  <-- SCF
 Warning: There are no empty bands for at least one kpoint and spin; this may
          slow the convergence and/or lead to an inaccurate groundstate.
          If this warning persists, you should consider increasing nextra_bands
          and/or reducing smearing_width in the param file.
          Recommend using nextra_bands of 7 to 15.                              
  
      2  -3.45228663E+003 -5.98349050E+000   1.91471103E-008      63.95  <-- SCF
 Warning: There are no empty bands for at least one kpoint and spin; this may
          slow the convergence and/or lead to an inaccurate groundstate.
          If this warning persists, you should consider increasing nextra_bands
          and/or reducing smearing_width in the param file.
          Recommend using nextra_bands of 7 to 15.                              
  
      3  -3.45228665E+003 -5.98384995E+000   3.42434801E-006      65.09  <-- SCF
 Warning: There are no empty bands for at least one kpoint and spin; this may
          slow the convergence and/or lead to an inaccurate groundstate.
          If this warning persists, you should consider increasing nextra_bands
          and/or reducing smearing_width in the param file.
          Recommend using nextra_bands of 7 to 15.                              
  
      4  -3.45228648E+003 -5.98373615E+000  -4.07969065E-005      66.25  <-- SCF
 Warning: There are no empty bands for at least one kpoint and spin; this may
          slow the convergence and/or lead to an inaccurate groundstate.
          If this warning persists, you should consider increasing nextra_bands
          and/or reducing smearing_width in the param file.
          Recommend using nextra_bands of 7 to 15.                              
  
      5  -3.45228663E+003 -5.98354939E+000   3.65632869E-005      67.34  <-- SCF
 Warning: There are no empty bands for at least one kpoint and spin; this may
          slow the convergence and/or lead to an inaccurate groundstate.
          If this warning persists, you should consider increasing nextra_bands
          and/or reducing smearing_width in the param file.
          Recommend using nextra_bands of 7 to 15.                              
  
      6  -3.45228663E+003 -5.98353912E+000   6.59283832E-007      68.44  <-- SCF
 Warning: There are no empty bands for at least one kpoint and spin; this may
          slow the convergence and/or lead to an inaccurate groundstate.
          If this warning persists, you should consider increasing nextra_bands
          and/or reducing smearing_width in the param file.
          Recommend using nextra_bands of 7 to 15.                              
  
      7  -3.45228663E+003 -5.98349438E+000  -3.72295856E-007      69.53  <-- SCF
------------------------------------------------------------------------ <-- SCF
 
Final energy, E             =  -3452.194718233     eV
Final free energy (E-TS)    =  -3452.286630799     eV
(energies not corrected for finite basis set)
 
NB est. 0K energy (E-0.5TS)      =  -3452.240674516     eV
 

Dispersion corrected final energy*, Ecor          =  -3452.613883097     eV
Dispersion corrected final free energy* (Ecor-TS) =  -3452.705795664     eV
NB dispersion corrected est. 0K energy* (Ecor-0.5TS) =  -3452.659839380     eV

 * not corrected for finite basis set

Calculating total energy with cut-off of  400.000eV.
------------------------------------------------------------------------ <-- SCF
SCF loop      Energy           Fermi           Energy gain       Timer   <-- SCF
                               energy          per atom          (sec)   <-- SCF
------------------------------------------------------------------------ <-- SCF
Initial  -3.45219472E+003  0.00000000E+000                        70.19  <-- SCF
 Warning: There are no empty bands for at least one kpoint and spin; this may
          slow the convergence and/or lead to an inaccurate groundstate.
          If this warning persists, you should consider increasing nextra_bands
          and/or reducing smearing_width in the param file.
          Recommend using nextra_bands of 7 to 15.                              
  
      1  -3.45228718E+003 -5.98368946E+000   2.31146214E-002      71.62  <-- SCF
 Warning: There are no empty bands for at least one kpoint and spin; this may
          slow the convergence and/or lead to an inaccurate groundstate.
          If this warning persists, you should consider increasing nextra_bands
          and/or reducing smearing_width in the param file.
          Recommend using nextra_bands of 7 to 15.                              
  
      2  -3.45228718E+003 -5.98368948E+000   9.50128338E-007      72.92  <-- SCF
 Warning: There are no empty bands for at least one kpoint and spin; this may
          slow the convergence and/or lead to an inaccurate groundstate.
          If this warning persists, you should consider increasing nextra_bands
          and/or reducing smearing_width in the param file.
          Recommend using nextra_bands of 7 to 15.                              
  
      3  -3.45230017E+003 -5.98514532E+000   3.24668526E-003      75.08  <-- SCF
 Warning: There are no empty bands for at least one kpoint and spin; this may
          slow the convergence and/or lead to an inaccurate groundstate.
          If this warning persists, you should consider increasing nextra_bands
          and/or reducing smearing_width in the param file.
          Recommend using nextra_bands of 7 to 15.                              
  
      4  -3.45226303E+003 -5.98253104E+000  -9.28554051E-003      77.17  <-- SCF
 Warning: There are no empty bands for at least one kpoint and spin; this may
          slow the convergence and/or lead to an inaccurate groundstate.
          If this warning persists, you should consider increasing nextra_bands
          and/or reducing smearing_width in the param file.
          Recommend using nextra_bands of 7 to 15.                              
  
      5  -3.45228689E+003 -5.98321767E+000   5.96549824E-003      78.81  <-- SCF
 Warning: There are no empty bands for at least one kpoint and spin; this may
          slow the convergence and/or lead to an inaccurate groundstate.
          If this warning persists, you should consider increasing nextra_bands
          and/or reducing smearing_width in the param file.
          Recommend using nextra_bands of 7 to 15.                              
  
      6  -3.45228709E+003 -5.98350718E+000   4.92978816E-005      80.12  <-- SCF
 Warning: There are no empty bands for at least one kpoint and spin; this may
          slow the convergence and/or lead to an inaccurate groundstate.
          If this warning persists, you should consider increasing nextra_bands
          and/or reducing smearing_width in the param file.
          Recommend using nextra_bands of 7 to 15.                              
  
      7  -3.45228711E+003 -5.98357041E+000   5.57081237E-006      81.22  <-- SCF
 Warning: There are no empty bands for at least one kpoint and spin; this may
          slow the convergence and/or lead to an inaccurate groundstate.
          If this warning persists, you should consider increasing nextra_bands
          and/or reducing smearing_width in the param file.
          Recommend using nextra_bands of 7 to 15.                              
  
      8  -3.45228712E+003 -5.98358015E+000   2.44235816E-006      82.31  <-- SCF
 Warning: There are no empty bands for at least one kpoint and spin; this may
          slow the convergence and/or lead to an inaccurate groundstate.
          If this warning persists, you should consider increasing nextra_bands
          and/or reducing smearing_width in the param file.
          Recommend using nextra_bands of 7 to 15.                              
  
      9  -3.45228713E+003 -5.98350694E+000   2.17594227E-006      83.41  <-- SCF
 Warning: There are no empty bands for at least one kpoint and spin; this may
          slow the convergence and/or lead to an inaccurate groundstate.
          If this warning persists, you should consider increasing nextra_bands
          and/or reducing smearing_width in the param file.
          Recommend using nextra_bands of 7 to 15.                              
  
     10  -3.45228713E+003 -5.98352563E+000   4.44898610E-007      84.50  <-- SCF
 Warning: There are no empty bands for at least one kpoint and spin; this may
          slow the convergence and/or lead to an inaccurate groundstate.
          If this warning persists, you should consider increasing nextra_bands
          and/or reducing smearing_width in the param file.
          Recommend using nextra_bands of 7 to 15.                              
  
     11  -3.45228713E+003 -5.98349724E+000   4.14311262E-007      85.59  <-- SCF
------------------------------------------------------------------------ <-- SCF
 
Final energy, E             =  -3452.195215580     eV
Final free energy (E-TS)    =  -3452.287129631     eV
(energies not corrected for finite basis set)
 
NB est. 0K energy (E-0.5TS)      =  -3452.241172605     eV
 

Dispersion corrected final energy*, Ecor          =  -3452.614380444     eV
Dispersion corrected final free energy* (Ecor-TS) =  -3452.706294496     eV
NB dispersion corrected est. 0K energy* (Ecor-0.5TS) =  -3452.660337470     eV

 * not corrected for finite basis set

 For future reference: finite basis dEtot/dlog(Ecut) =      -0.042330eV
 Total energy corrected for finite basis set =   -3452.706377 eV
 
+---------------- MEMORY AND SCRATCH DISK ESTIMATES PER PROCESS --------------+
|                                                     Memory          Disk    |
| Model and support data                               76.8 MB        52.5 MB |
| Electronic energy minimisation requirements          22.6 MB        10.6 MB |
| Geometry minimisation requirements                   34.0 MB        10.6 MB |
|                                               ----------------------------- |
| Approx. total storage required per process          133.4 MB        73.7 MB |
|                                                                             |
| Requirements will fluctuate during execution and may exceed these estimates |
+-----------------------------------------------------------------------------+
 
 
 *********************************** Forces ***********************************
 *                                                                            *
 *                        Cartesian components (eV/A)                         *
 * -------------------------------------------------------------------------- *
 *                   x                    y                    z              *
 *                                                                            *
 * Fe        1      0.00000              0.00000              0.00000         *
 * Fe        2      0.00000              0.00000              0.00000         *
 * Fe        3      0.00000              0.00000              0.00000         *
 * Fe        4      0.00000              0.00000              0.00000         *
 *                                                                            *
 ******************************************************************************
 
 ***************** Stress Tensor *****************
 *                                               *
 *          Cartesian components (GPa)           *
 * --------------------------------------------- *
 *             x             y             z     *
 *                                               *
 *  x      2.516830     -0.000197      0.000001  *
 *  y     -0.000197      2.517066      0.000000  *
 *  z      0.000001      0.000000      0.001726  *
 *                                               *
 *  Pressure:   -1.6785                          *
 *                                               *
 *************************************************
 BFGS: finished iteration     0 with enthalpy= -3.45270638E+003 eV
  
 +-----------+-----------------+-----------------+------------+-----+ <-- BFGS
 | Parameter |      value      |    tolerance    |    units   | OK? | <-- BFGS
 +-----------+-----------------+-----------------+------------+-----+ <-- BFGS
 |  dE/ion   |   0.000000E+000 |   1.000000E-005 |         eV | No  | <-- BFGS
 |  |F|max   |   4.450590E-006 |   2.000000E-002 |       eV/A | Yes | <-- BFGS
 |  |dR|max  |   0.000000E+000 |   1.000000E-003 |          A | No  | <-- BFGS
 |   Smax    |   2.517066E+000 |   5.000000E-002 |        GPa | No  | <-- BFGS
 +-----------+-----------------+-----------------+------------+-----+ <-- BFGS
  

================================================================================
 Starting BFGS iteration          1 ...
================================================================================
  
 +------------+-------------+-------------+-----------------+ <-- min BFGS
 |    Step    |   lambda    |   F.delta   |    enthalpy     | <-- min BFGS
 +------------+-------------+-------------+-----------------+ <-- min BFGS
 |  previous  |    0.000000 |    0.000739 |    -3452.706377 | <-- min BFGS
 +------------+-------------+-------------+-----------------+ <-- min BFGS
  

--------------------------------------------------------------------------------
 BFGS: starting iteration         1 with trial guess (lambda=  1.000000)
--------------------------------------------------------------------------------
 
                           -------------------------------
                                      Unit Cell
                           -------------------------------
        Real Lattice(A)              Reciprocal Lattice(1/A)
   4.0583021  -2.3430611   0.0000000        1.5482299  -0.0000002   0.0000000
   0.0000006   4.6861233   0.0000000        0.7741148   1.3408066   0.0000000
   0.0000000   0.0000000  19.9999770        0.0000000   0.0000000   0.3141596
 
                       Lattice parameters(A)       Cell Angles
                    a =    4.686123          alpha =   90.000000
                    b =    4.686123          beta  =   90.000000
                    c =   19.999977          gamma =  119.999985
 
                Current cell volume =  380.353670 A**3
 
                           -------------------------------
                                     Cell Contents
                           -------------------------------
 
            xxxxxxxxxxxxxxxxxxxxxxxxxxxxxxxxxxxxxxxxxxxxxxxxxxxxxxxxxxxx
            x  Element    Atom        Fractional coordinates of atoms  x
            x            Number           u          v          w      x
            x----------------------------------------------------------x
            x  Fe           1         0.333333   0.166667   0.000000   x
            x  Fe           2         0.833333   0.166667   0.000000   x
            x  Fe           3         0.333333   0.666667   0.000000   x
            x  Fe           4         0.833333   0.666667   0.000000   x
            xxxxxxxxxxxxxxxxxxxxxxxxxxxxxxxxxxxxxxxxxxxxxxxxxxxxxxxxxxxx
 
 
------------------------------------------------------------------------ <-- SCF
SCF loop      Energy           Fermi           Energy gain       Timer   <-- SCF
                               energy          per atom          (sec)   <-- SCF
------------------------------------------------------------------------ <-- SCF
Initial  -3.45219595E+003  0.00000000E+000                        89.59  <-- SCF
 Warning: There are no empty bands for at least one kpoint and spin; this may
          slow the convergence and/or lead to an inaccurate groundstate.
          If this warning persists, you should consider increasing nextra_bands
          and/or reducing smearing_width in the param file.
          Recommend using nextra_bands of 7 to 15.                              
  
      1  -3.45237112E+003 -5.84011061E+000   4.37920855E-002      91.22  <-- SCF
 Warning: There are no empty bands for at least one kpoint and spin; this may
          slow the convergence and/or lead to an inaccurate groundstate.
          If this warning persists, you should consider increasing nextra_bands
          and/or reducing smearing_width in the param file.
          Recommend using nextra_bands of 7 to 15.                              
  
      2  -3.45237180E+003 -5.84011600E+000   1.69974279E-004      92.94  <-- SCF
 Warning: There are no empty bands for at least one kpoint and spin; this may
          slow the convergence and/or lead to an inaccurate groundstate.
          If this warning persists, you should consider increasing nextra_bands
          and/or reducing smearing_width in the param file.
          Recommend using nextra_bands of 7 to 15.                              
  
      3  -3.45266899E+003 -6.32199809E+000   7.42979208E-002      94.75  <-- SCF
 Warning: There are no empty bands for at least one kpoint and spin; this may
          slow the convergence and/or lead to an inaccurate groundstate.
          If this warning persists, you should consider increasing nextra_bands
          and/or reducing smearing_width in the param file.
          Recommend using nextra_bands of 7 to 15.                              
  
      4  -3.45232768E+003 -6.00179003E+000  -8.53258576E-002      96.86  <-- SCF
 Warning: There are no empty bands for at least one kpoint and spin; this may
          slow the convergence and/or lead to an inaccurate groundstate.
          If this warning persists, you should consider increasing nextra_bands
          and/or reducing smearing_width in the param file.
          Recommend using nextra_bands of 7 to 15.                              
  
      5  -3.45217863E+003 -5.97874405E+000  -3.72630080E-002      99.05  <-- SCF
 Warning: There are no empty bands for at least one kpoint and spin; this may
          slow the convergence and/or lead to an inaccurate groundstate.
          If this warning persists, you should consider increasing nextra_bands
          and/or reducing smearing_width in the param file.
          Recommend using nextra_bands of 7 to 15.                              
  
      6  -3.45230579E+003 -5.97815106E+000   3.17899863E-002     101.17  <-- SCF
 Warning: There are no empty bands for at least one kpoint and spin; this may
          slow the convergence and/or lead to an inaccurate groundstate.
          If this warning persists, you should consider increasing nextra_bands
          and/or reducing smearing_width in the param file.
          Recommend using nextra_bands of 7 to 15.                              
  
      7  -3.45229183E+003 -5.97147211E+000  -3.48995563E-003     103.33  <-- SCF
 Warning: There are no empty bands for at least one kpoint and spin; this may
          slow the convergence and/or lead to an inaccurate groundstate.
          If this warning persists, you should consider increasing nextra_bands
          and/or reducing smearing_width in the param file.
          Recommend using nextra_bands of 7 to 15.                              
  
      8  -3.45230262E+003 -5.97428800E+000   2.69727779E-003     105.41  <-- SCF
 Warning: There are no empty bands for at least one kpoint and spin; this may
          slow the convergence and/or lead to an inaccurate groundstate.
          If this warning persists, you should consider increasing nextra_bands
          and/or reducing smearing_width in the param file.
          Recommend using nextra_bands of 7 to 15.                              
  
      9  -3.45230273E+003 -5.97451762E+000   2.67254088E-005     107.61  <-- SCF
 Warning: There are no empty bands for at least one kpoint and spin; this may
          slow the convergence and/or lead to an inaccurate groundstate.
          If this warning persists, you should consider increasing nextra_bands
          and/or reducing smearing_width in the param file.
          Recommend using nextra_bands of 7 to 15.                              
  
     10  -3.45230330E+003 -5.97575904E+000   1.41843696E-004     109.09  <-- SCF
 Warning: There are no empty bands for at least one kpoint and spin; this may
          slow the convergence and/or lead to an inaccurate groundstate.
          If this warning persists, you should consider increasing nextra_bands
          and/or reducing smearing_width in the param file.
          Recommend using nextra_bands of 7 to 15.                              
  
     11  -3.45230349E+003 -5.97636354E+000   4.74184294E-005     110.31  <-- SCF
 Warning: There are no empty bands for at least one kpoint and spin; this may
          slow the convergence and/or lead to an inaccurate groundstate.
          If this warning persists, you should consider increasing nextra_bands
          and/or reducing smearing_width in the param file.
          Recommend using nextra_bands of 7 to 15.                              
  
     12  -3.45230352E+003 -5.97679351E+000   7.59606442E-006     111.42  <-- SCF
 Warning: There are no empty bands for at least one kpoint and spin; this may
          slow the convergence and/or lead to an inaccurate groundstate.
          If this warning persists, you should consider increasing nextra_bands
          and/or reducing smearing_width in the param file.
          Recommend using nextra_bands of 7 to 15.                              
  
     13  -3.45230353E+003 -5.97751799E+000   3.27417016E-006     112.52  <-- SCF
 Warning: There are no empty bands for at least one kpoint and spin; this may
          slow the convergence and/or lead to an inaccurate groundstate.
          If this warning persists, you should consider increasing nextra_bands
          and/or reducing smearing_width in the param file.
          Recommend using nextra_bands of 7 to 15.                              
  
     14  -3.45230353E+003 -5.97819386E+000   1.40169380E-006     113.62  <-- SCF
 Warning: There are no empty bands for at least one kpoint and spin; this may
          slow the convergence and/or lead to an inaccurate groundstate.
          If this warning persists, you should consider increasing nextra_bands
          and/or reducing smearing_width in the param file.
          Recommend using nextra_bands of 7 to 15.                              
  
     15  -3.45230354E+003 -5.97896633E+000   1.51103161E-006     114.78  <-- SCF
 Warning: There are no empty bands for at least one kpoint and spin; this may
          slow the convergence and/or lead to an inaccurate groundstate.
          If this warning persists, you should consider increasing nextra_bands
          and/or reducing smearing_width in the param file.
          Recommend using nextra_bands of 7 to 15.                              
  
     16  -3.45230355E+003 -5.98026440E+000   1.82759650E-006     115.91  <-- SCF
 Warning: There are no empty bands for at least one kpoint and spin; this may
          slow the convergence and/or lead to an inaccurate groundstate.
          If this warning persists, you should consider increasing nextra_bands
          and/or reducing smearing_width in the param file.
          Recommend using nextra_bands of 7 to 15.                              
  
     17  -3.45230355E+003 -5.98158400E+000   8.17701619E-007     117.03  <-- SCF
 Warning: There are no empty bands for at least one kpoint and spin; this may
          slow the convergence and/or lead to an inaccurate groundstate.
          If this warning persists, you should consider increasing nextra_bands
          and/or reducing smearing_width in the param file.
          Recommend using nextra_bands of 7 to 15.                              
  
     18  -3.45230355E+003 -5.98234193E+000   2.75221559E-007     118.14  <-- SCF
 Warning: There are no empty bands for at least one kpoint and spin; this may
          slow the convergence and/or lead to an inaccurate groundstate.
          If this warning persists, you should consider increasing nextra_bands
          and/or reducing smearing_width in the param file.
          Recommend using nextra_bands of 7 to 15.                              
  
     19  -3.45230355E+003 -5.98270959E+000   1.59234491E-007     119.34  <-- SCF
------------------------------------------------------------------------ <-- SCF
 
Final energy, E             =  -3452.211554768     eV
Final free energy (E-TS)    =  -3452.303553228     eV
(energies not corrected for finite basis set)
 
NB est. 0K energy (E-0.5TS)      =  -3452.257553998     eV
 

Dispersion corrected final energy*, Ecor          =  -3452.633901442     eV
Dispersion corrected final free energy* (Ecor-TS) =  -3452.725899903     eV
NB dispersion corrected est. 0K energy* (Ecor-0.5TS) =  -3452.679900672     eV

 * not corrected for finite basis set

 
 *********************************** Forces ***********************************
 *                                                                            *
 *                        Cartesian components (eV/A)                         *
 * -------------------------------------------------------------------------- *
 *                   x                    y                    z              *
 *                                                                            *
 * Fe        1      0.00000              0.00000              0.00000         *
 * Fe        2      0.00000              0.00000              0.00000         *
 * Fe        3      0.00000              0.00000              0.00000         *
 * Fe        4      0.00000              0.00000              0.00000         *
 *                                                                            *
 ******************************************************************************
 
 ***************** Stress Tensor *****************
 *                                               *
 *          Cartesian components (GPa)           *
 * --------------------------------------------- *
 *             x             y             z     *
 *                                               *
 *  x      2.400344     -0.000220      0.000000  *
 *  y     -0.000220      2.400522      0.000000  *
 *  z      0.000000      0.000000      0.013792  *
 *                                               *
 *  Pressure:   -1.6049                          *
 *                                               *
 *************************************************
  
 +------------+-------------+-------------+-----------------+ <-- min BFGS
 |    Step    |   lambda    |   F.delta   |    enthalpy     | <-- min BFGS
 +------------+-------------+-------------+-----------------+ <-- min BFGS
 |  previous  |    0.000000 |    0.000739 |    -3452.706377 | <-- min BFGS
 | trial step |    1.000000 |    0.000704 |    -3452.725931 | <-- min BFGS
 +------------+-------------+-------------+-----------------+ <-- min BFGS
  

--------------------------------------------------------------------------------
 BFGS: improving iteration         1 with line minimization (lambda= 20.880319)
--------------------------------------------------------------------------------
 
                           -------------------------------
                                      Unit Cell
                           -------------------------------
        Real Lattice(A)              Reciprocal Lattice(1/A)
   3.9226960  -2.2647544   0.0000000        1.6017492  -0.0000046   0.0000000
   0.0000129   4.5295312   0.0000000        0.8008706   1.3871579   0.0000000
  -0.0000003  -0.0000001  19.9995193        0.0000000   0.0000000   0.3141668
 
                       Lattice parameters(A)       Cell Angles
                    a =    4.529532          alpha =   90.000000
                    b =    4.529531          beta  =   90.000001
                    c =   19.999519          gamma =  119.999671
 
                Current cell volume =  355.351516 A**3
 
                           -------------------------------
                                     Cell Contents
                           -------------------------------
 
            xxxxxxxxxxxxxxxxxxxxxxxxxxxxxxxxxxxxxxxxxxxxxxxxxxxxxxxxxxxx
            x  Element    Atom        Fractional coordinates of atoms  x
            x            Number           u          v          w      x
            x----------------------------------------------------------x
            x  Fe           1         0.333333   0.166667   0.000000   x
            x  Fe           2         0.833333   0.166667   0.000000   x
            x  Fe           3         0.333333   0.666667   0.000000   x
            x  Fe           4         0.833333   0.666667   0.000000   x
            xxxxxxxxxxxxxxxxxxxxxxxxxxxxxxxxxxxxxxxxxxxxxxxxxxxxxxxxxxxx
 
 
------------------------------------------------------------------------ <-- SCF
SCF loop      Energy           Fermi           Energy gain       Timer   <-- SCF
                               energy          per atom          (sec)   <-- SCF
------------------------------------------------------------------------ <-- SCF
Initial  -3.44610172E+003  0.00000000E+000                       123.48  <-- SCF
      1  -3.46872178E+003 -2.36361944E+000   5.65501392E+000     125.06  <-- SCF
      2  -3.46890528E+003 -2.37075345E+000   4.58748665E-002     126.55  <-- SCF
 Warning: There are no empty bands for at least one kpoint and spin; this may
          slow the convergence and/or lead to an inaccurate groundstate.
          If this warning persists, you should consider increasing nextra_bands
          and/or reducing smearing_width in the param file.
          Recommend using nextra_bands of 7 to 15.                              
  
      3  -3.46575191E+003 -9.71210235E+000  -7.88342366E-001     128.22  <-- SCF
 Warning: There are no empty bands for at least one kpoint and spin; this may
          slow the convergence and/or lead to an inaccurate groundstate.
          If this warning persists, you should consider increasing nextra_bands
          and/or reducing smearing_width in the param file.
          Recommend using nextra_bands of 7 to 15.                              
  
      4  -3.45191313E+003 -6.08523941E+000  -3.45969410E+000     130.06  <-- SCF
 Warning: There are no empty bands for at least one kpoint and spin; this may
          slow the convergence and/or lead to an inaccurate groundstate.
          If this warning persists, you should consider increasing nextra_bands
          and/or reducing smearing_width in the param file.
          Recommend using nextra_bands of 7 to 15.                              
  
      5  -3.45198907E+003 -6.07960212E+000   1.89846379E-002     131.64  <-- SCF
 Warning: There are no empty bands for at least one kpoint and spin; this may
          slow the convergence and/or lead to an inaccurate groundstate.
          If this warning persists, you should consider increasing nextra_bands
          and/or reducing smearing_width in the param file.
          Recommend using nextra_bands of 7 to 15.                              
  
      6  -3.45328980E+003 -6.08182183E+000   3.25182880E-001     133.91  <-- SCF
 Warning: There are no empty bands for at least one kpoint and spin; this may
          slow the convergence and/or lead to an inaccurate groundstate.
          If this warning persists, you should consider increasing nextra_bands
          and/or reducing smearing_width in the param file.
          Recommend using nextra_bands of 7 to 15.                              
  
      7  -3.45216658E+003 -5.99132403E+000  -2.80806701E-001     136.09  <-- SCF
 Warning: There are no empty bands for at least one kpoint and spin; this may
          slow the convergence and/or lead to an inaccurate groundstate.
          If this warning persists, you should consider increasing nextra_bands
          and/or reducing smearing_width in the param file.
          Recommend using nextra_bands of 7 to 15.                              
  
      8  -3.45235336E+003 -5.99535926E+000   4.66947484E-002     138.11  <-- SCF
 Warning: There are no empty bands for at least one kpoint and spin; this may
          slow the convergence and/or lead to an inaccurate groundstate.
          If this warning persists, you should consider increasing nextra_bands
          and/or reducing smearing_width in the param file.
          Recommend using nextra_bands of 7 to 15.                              
  
      9  -3.45235313E+003 -5.99931506E+000  -5.77198077E-005     140.02  <-- SCF
 Warning: There are no empty bands for at least one kpoint and spin; this may
          slow the convergence and/or lead to an inaccurate groundstate.
          If this warning persists, you should consider increasing nextra_bands
          and/or reducing smearing_width in the param file.
          Recommend using nextra_bands of 7 to 15.                              
  
     10  -3.45236400E+003 -5.88770068E+000   2.71814825E-003     141.81  <-- SCF
 Warning: There are no empty bands for at least one kpoint and spin; this may
          slow the convergence and/or lead to an inaccurate groundstate.
          If this warning persists, you should consider increasing nextra_bands
          and/or reducing smearing_width in the param file.
          Recommend using nextra_bands of 7 to 15.                              
  
     11  -3.45237709E+003 -5.88739472E+000   3.27326466E-003     144.11  <-- SCF
 Warning: There are no empty bands for at least one kpoint and spin; this may
          slow the convergence and/or lead to an inaccurate groundstate.
          If this warning persists, you should consider increasing nextra_bands
          and/or reducing smearing_width in the param file.
          Recommend using nextra_bands of 7 to 15.                              
  
     12  -3.45235435E+003 -5.88683235E+000  -5.68622692E-003     146.25  <-- SCF
 Warning: There are no empty bands for at least one kpoint and spin; this may
          slow the convergence and/or lead to an inaccurate groundstate.
          If this warning persists, you should consider increasing nextra_bands
          and/or reducing smearing_width in the param file.
          Recommend using nextra_bands of 7 to 15.                              
  
     13  -3.45236161E+003 -5.87822456E+000   1.81702831E-003     147.89  <-- SCF
 Warning: There are no empty bands for at least one kpoint and spin; this may
          slow the convergence and/or lead to an inaccurate groundstate.
          If this warning persists, you should consider increasing nextra_bands
          and/or reducing smearing_width in the param file.
          Recommend using nextra_bands of 7 to 15.                              
  
     14  -3.45236850E+003 -5.87795567E+000   1.72123313E-003     149.86  <-- SCF
 Warning: There are no empty bands for at least one kpoint and spin; this may
          slow the convergence and/or lead to an inaccurate groundstate.
          If this warning persists, you should consider increasing nextra_bands
          and/or reducing smearing_width in the param file.
          Recommend using nextra_bands of 7 to 15.                              
  
     15  -3.45236885E+003 -5.88031416E+000   8.79261289E-005     151.42  <-- SCF
 Warning: There are no empty bands for at least one kpoint and spin; this may
          slow the convergence and/or lead to an inaccurate groundstate.
          If this warning persists, you should consider increasing nextra_bands
          and/or reducing smearing_width in the param file.
          Recommend using nextra_bands of 7 to 15.                              
  
     16  -3.45236903E+003 -5.88746389E+000   4.35414409E-005     152.92  <-- SCF
 Warning: There are no empty bands for at least one kpoint and spin; this may
          slow the convergence and/or lead to an inaccurate groundstate.
          If this warning persists, you should consider increasing nextra_bands
          and/or reducing smearing_width in the param file.
          Recommend using nextra_bands of 7 to 15.                              
  
     17  -3.45236899E+003 -5.89793379E+000  -8.08030539E-006     154.44  <-- SCF
 Warning: There are no empty bands for at least one kpoint and spin; this may
          slow the convergence and/or lead to an inaccurate groundstate.
          If this warning persists, you should consider increasing nextra_bands
          and/or reducing smearing_width in the param file.
          Recommend using nextra_bands of 7 to 15.                              
  
     18  -3.45236866E+003 -5.91570164E+000  -8.25197053E-005     155.70  <-- SCF
 Warning: There are no empty bands for at least one kpoint and spin; this may
          slow the convergence and/or lead to an inaccurate groundstate.
          If this warning persists, you should consider increasing nextra_bands
          and/or reducing smearing_width in the param file.
          Recommend using nextra_bands of 7 to 15.                              
  
     19  -3.45236826E+003 -5.93822949E+000  -1.00292373E-004     157.08  <-- SCF
 Warning: There are no empty bands for at least one kpoint and spin; this may
          slow the convergence and/or lead to an inaccurate groundstate.
          If this warning persists, you should consider increasing nextra_bands
          and/or reducing smearing_width in the param file.
          Recommend using nextra_bands of 7 to 15.                              
  
     20  -3.45236796E+003 -5.96256381E+000  -7.43401899E-005     158.41  <-- SCF
 Warning: There are no empty bands for at least one kpoint and spin; this may
          slow the convergence and/or lead to an inaccurate groundstate.
          If this warning persists, you should consider increasing nextra_bands
          and/or reducing smearing_width in the param file.
          Recommend using nextra_bands of 7 to 15.                              
  
     21  -3.45236799E+003 -5.97407508E+000   7.57668258E-006     159.56  <-- SCF
 Warning: There are no empty bands for at least one kpoint and spin; this may
          slow the convergence and/or lead to an inaccurate groundstate.
          If this warning persists, you should consider increasing nextra_bands
          and/or reducing smearing_width in the param file.
          Recommend using nextra_bands of 7 to 15.                              
  
     22  -3.45236814E+003 -5.99171591E+000   3.74155056E-005     161.03  <-- SCF
 Warning: There are no empty bands for at least one kpoint and spin; this may
          slow the convergence and/or lead to an inaccurate groundstate.
          If this warning persists, you should consider increasing nextra_bands
          and/or reducing smearing_width in the param file.
          Recommend using nextra_bands of 7 to 15.                              
  
     23  -3.45236804E+003 -5.99811266E+000  -2.68120518E-005     162.22  <-- SCF
 Warning: There are no empty bands for at least one kpoint and spin; this may
          slow the convergence and/or lead to an inaccurate groundstate.
          If this warning persists, you should consider increasing nextra_bands
          and/or reducing smearing_width in the param file.
          Recommend using nextra_bands of 7 to 15.                              
  
     24  -3.45236818E+003 -6.00085822E+000   3.47505745E-005     163.41  <-- SCF
 Warning: There are no empty bands for at least one kpoint and spin; this may
          slow the convergence and/or lead to an inaccurate groundstate.
          If this warning persists, you should consider increasing nextra_bands
          and/or reducing smearing_width in the param file.
          Recommend using nextra_bands of 7 to 15.                              
  
     25  -3.45236837E+003 -6.00562546E+000   4.78309632E-005     164.52  <-- SCF
 Warning: There are no empty bands for at least one kpoint and spin; this may
          slow the convergence and/or lead to an inaccurate groundstate.
          If this warning persists, you should consider increasing nextra_bands
          and/or reducing smearing_width in the param file.
          Recommend using nextra_bands of 7 to 15.                              
  
     26  -3.45236843E+003 -6.00767634E+000   1.45104953E-005     165.62  <-- SCF
 Warning: There are no empty bands for at least one kpoint and spin; this may
          slow the convergence and/or lead to an inaccurate groundstate.
          If this warning persists, you should consider increasing nextra_bands
          and/or reducing smearing_width in the param file.
          Recommend using nextra_bands of 7 to 15.                              
  
     27  -3.45236849E+003 -6.00865611E+000   1.49909197E-005     166.72  <-- SCF
 Warning: There are no empty bands for at least one kpoint and spin; this may
          slow the convergence and/or lead to an inaccurate groundstate.
          If this warning persists, you should consider increasing nextra_bands
          and/or reducing smearing_width in the param file.
          Recommend using nextra_bands of 7 to 15.                              
  
     28  -3.45236851E+003 -6.00885999E+000   4.92336688E-006     167.81  <-- SCF
 Warning: There are no empty bands for at least one kpoint and spin; this may
          slow the convergence and/or lead to an inaccurate groundstate.
          If this warning persists, you should consider increasing nextra_bands
          and/or reducing smearing_width in the param file.
          Recommend using nextra_bands of 7 to 15.                              
  
     29  -3.45236851E+003 -6.00881099E+000   1.89768359E-006     168.91  <-- SCF
 Warning: There are no empty bands for at least one kpoint and spin; this may
          slow the convergence and/or lead to an inaccurate groundstate.
          If this warning persists, you should consider increasing nextra_bands
          and/or reducing smearing_width in the param file.
          Recommend using nextra_bands of 7 to 15.                              
  
     30  -3.45236851E+003 -6.00876823E+000   5.64259610E-007     170.00  <-- SCF
 Warning: There are no empty bands for at least one kpoint and spin; this may
          slow the convergence and/or lead to an inaccurate groundstate.
          If this warning persists, you should consider increasing nextra_bands
          and/or reducing smearing_width in the param file.
          Recommend using nextra_bands of 7 to 15.                              
  
     31  -3.45236852E+003 -6.00871807E+000   2.39830853E-007     171.08  <-- SCF
------------------------------------------------------------------------ <-- SCF
 
Final energy, E             =  -3452.270335228     eV
Final free energy (E-TS)    =  -3452.368515886     eV
(energies not corrected for finite basis set)
 
NB est. 0K energy (E-0.5TS)      =  -3452.319425557     eV
 

Dispersion corrected final energy*, Ecor          =  -3452.767509234     eV
Dispersion corrected final free energy* (Ecor-TS) =  -3452.865689891     eV
NB dispersion corrected est. 0K energy* (Ecor-0.5TS) =  -3452.816599562     eV

 * not corrected for finite basis set

 
 *********************************** Forces ***********************************
 *                                                                            *
 *                        Cartesian components (eV/A)                         *
 * -------------------------------------------------------------------------- *
 *                   x                    y                    z              *
 *                                                                            *
 * Fe        1      0.00000              0.00000              0.00000         *
 * Fe        2      0.00000              0.00000              0.00000         *
 * Fe        3      0.00000              0.00000              0.00000         *
 * Fe        4      0.00000              0.00000              0.00000         *
 *                                                                            *
 ******************************************************************************
 
 ***************** Stress Tensor *****************
 *                                               *
 *          Cartesian components (GPa)           *
 * --------------------------------------------- *
 *             x             y             z     *
 *                                               *
 *  x     -0.850022     -0.000116      0.000000  *
 *  y     -0.000116     -0.849882      0.000000  *
 *  z      0.000000      0.000000      0.001258  *
 *                                               *
 *  Pressure:    0.5662                          *
 *                                               *
 *************************************************
  
 +------------+-------------+-------------+-----------------+ <-- min BFGS
 |    Step    |   lambda    |   F.delta   |    enthalpy     | <-- min BFGS
 +------------+-------------+-------------+-----------------+ <-- min BFGS
 |  previous  |    0.000000 |    0.000739 |    -3452.706377 | <-- min BFGS
 | trial step |    1.000000 |    0.000704 |    -3452.725931 | <-- min BFGS
 |  line step |   20.880319 |   -0.000241 |    -3452.865690 | <-- min BFGS
 +------------+-------------+-------------+-----------------+ <-- min BFGS
  
 BFGS: finished iteration     1 with enthalpy= -3.45286569E+003 eV
  
 +-----------+-----------------+-----------------+------------+-----+ <-- BFGS
 | Parameter |      value      |    tolerance    |    units   | OK? | <-- BFGS
 +-----------+-----------------+-----------------+------------+-----+ <-- BFGS
 |  dE/ion   |   3.982839E-002 |   1.000000E-005 |         eV | No  | <-- BFGS
 |  |F|max   |   2.552117E-006 |   2.000000E-002 |       eV/A | Yes | <-- BFGS
 |  |dR|max  |   1.569909E-007 |   1.000000E-003 |          A | Yes | <-- BFGS
 |   Smax    |   8.500222E-001 |   5.000000E-002 |        GPa | No  | <-- BFGS
 +-----------+-----------------+-----------------+------------+-----+ <-- BFGS
  

================================================================================
 Starting BFGS iteration          2 ...
================================================================================
  
 +------------+-------------+-------------+-----------------+ <-- min BFGS
 |    Step    |   lambda    |   F.delta   |    enthalpy     | <-- min BFGS
 +------------+-------------+-------------+-----------------+ <-- min BFGS
 |  previous  |    0.000000 |    0.001236 |    -3452.865690 | <-- min BFGS
 +------------+-------------+-------------+-----------------+ <-- min BFGS
  

--------------------------------------------------------------------------------
 BFGS: starting iteration         2 with trial guess (lambda=  1.000000)
--------------------------------------------------------------------------------
 
                           -------------------------------
                                      Unit Cell
                           -------------------------------
        Real Lattice(A)              Reciprocal Lattice(1/A)
[...]
 * Fe        4      0.00000              0.00000              0.00000         *
 *                                                                            *
 ******************************************************************************
 
 ***************** Stress Tensor *****************
 *                                               *
 *          Cartesian components (GPa)           *
 * --------------------------------------------- *
 *             x             y             z     *
 *                                               *
 *  x      0.012801     -0.000035      0.000000  *
 *  y     -0.000035      0.012814      0.000000  *
 *  z      0.000000      0.000000      0.010740  *
 *                                               *
 *  Pressure:   -0.0121                          *
 *                                               *
 *************************************************
  
 +------------+-------------+-------------+-----------------+ <-- min BFGS
 |    Step    |   lambda    |   F.delta   |    enthalpy     | <-- min BFGS
 +------------+-------------+-------------+-----------------+ <-- min BFGS
 |  previous  |    0.000000 |    0.000024 |    -3452.879751 | <-- min BFGS
 | trial step |    1.000000 |  2.428E-006 |    -3452.880072 | <-- min BFGS
 +------------+-------------+-------------+-----------------+ <-- min BFGS
  
 BFGS: finished iteration     3 with enthalpy= -3.45288007E+003 eV
  
 +-----------+-----------------+-----------------+------------+-----+ <-- BFGS
 | Parameter |      value      |    tolerance    |    units   | OK? | <-- BFGS
 +-----------+-----------------+-----------------+------------+-----+ <-- BFGS
 |  dE/ion   |   8.025108E-005 |   1.000000E-005 |         eV | No  | <-- BFGS
 |  |F|max   |   1.686224E-006 |   2.000000E-002 |       eV/A | Yes | <-- BFGS
 |  |dR|max  |   4.316685E-009 |   1.000000E-003 |          A | Yes | <-- BFGS
 |   Smax    |   1.281380E-002 |   5.000000E-002 |        GPa | Yes | <-- BFGS
 +-----------+-----------------+-----------------+------------+-----+ <-- BFGS
  

================================================================================
 Starting BFGS iteration          4 ...
================================================================================
  
 +------------+-------------+-------------+-----------------+ <-- min BFGS
 |    Step    |   lambda    |   F.delta   |    enthalpy     | <-- min BFGS
 +------------+-------------+-------------+-----------------+ <-- min BFGS
 |  previous  |    0.000000 |  2.842E-007 |    -3452.880072 | <-- min BFGS
 +------------+-------------+-------------+-----------------+ <-- min BFGS
  

--------------------------------------------------------------------------------
 BFGS: starting iteration         4 with trial guess (lambda=  1.000000)
--------------------------------------------------------------------------------
 
                           -------------------------------
                                      Unit Cell
                           -------------------------------
        Real Lattice(A)              Reciprocal Lattice(1/A)
   3.9526601  -2.2820568   0.0000000        1.5896071  -0.0000037   0.0000000
   0.0000107   4.5641322   0.0000000        0.7948003   1.3766421   0.0000000
  -0.0000002  -0.0000001  19.9994273        0.0000000   0.0000000   0.3141683
 
                       Lattice parameters(A)       Cell Angles
                    a =    4.564132          alpha =   90.000000
                    b =    4.564132          beta  =   90.000001
                    c =   19.999427          gamma =  119.999729
 
                Current cell volume =  360.799426 A**3
 
                           -------------------------------
                                     Cell Contents
                           -------------------------------
 
            xxxxxxxxxxxxxxxxxxxxxxxxxxxxxxxxxxxxxxxxxxxxxxxxxxxxxxxxxxxx
            x  Element    Atom        Fractional coordinates of atoms  x
            x            Number           u          v          w      x
            x----------------------------------------------------------x
            x  Fe           1         0.333333   0.166667   0.000000   x
            x  Fe           2         0.833333   0.166667   0.000000   x
            x  Fe           3         0.333333   0.666667   0.000000   x
            x  Fe           4         0.833333   0.666667   0.000000   x
            xxxxxxxxxxxxxxxxxxxxxxxxxxxxxxxxxxxxxxxxxxxxxxxxxxxxxxxxxxxx
 
 
------------------------------------------------------------------------ <-- SCF
SCF loop      Energy           Fermi           Energy gain       Timer   <-- SCF
                               energy          per atom          (sec)   <-- SCF
------------------------------------------------------------------------ <-- SCF
Initial  -3.45230523E+003  0.00000000E+000                       260.41  <-- SCF
 Warning: There are no empty bands for at least one kpoint and spin; this may
          slow the convergence and/or lead to an inaccurate groundstate.
          If this warning persists, you should consider increasing nextra_bands
          and/or reducing smearing_width in the param file.
          Recommend using nextra_bands of 7 to 15.                              
  
      1  -3.45240197E+003 -5.99476954E+000   2.41835231E-002     261.97  <-- SCF
 Warning: There are no empty bands for at least one kpoint and spin; this may
          slow the convergence and/or lead to an inaccurate groundstate.
          If this warning persists, you should consider increasing nextra_bands
          and/or reducing smearing_width in the param file.
          Recommend using nextra_bands of 7 to 15.                              
  
      2  -3.45240197E+003 -5.99476957E+000   1.02888808E-006     263.12  <-- SCF
 Warning: There are no empty bands for at least one kpoint and spin; this may
          slow the convergence and/or lead to an inaccurate groundstate.
          If this warning persists, you should consider increasing nextra_bands
          and/or reducing smearing_width in the param file.
          Recommend using nextra_bands of 7 to 15.                              
  
      3  -3.45240496E+003 -6.03304520E+000   7.47254816E-004     264.88  <-- SCF
 Warning: There are no empty bands for at least one kpoint and spin; this may
          slow the convergence and/or lead to an inaccurate groundstate.
          If this warning persists, you should consider increasing nextra_bands
          and/or reducing smearing_width in the param file.
          Recommend using nextra_bands of 7 to 15.                              
  
      4  -3.45239712E+003 -6.00556877E+000  -1.96010718E-003     266.78  <-- SCF
 Warning: There are no empty bands for at least one kpoint and spin; this may
          slow the convergence and/or lead to an inaccurate groundstate.
          If this warning persists, you should consider increasing nextra_bands
          and/or reducing smearing_width in the param file.
          Recommend using nextra_bands of 7 to 15.                              
  
      5  -3.45239947E+003 -6.00508050E+000   5.87787369E-004     268.62  <-- SCF
 Warning: There are no empty bands for at least one kpoint and spin; this may
          slow the convergence and/or lead to an inaccurate groundstate.
          If this warning persists, you should consider increasing nextra_bands
          and/or reducing smearing_width in the param file.
          Recommend using nextra_bands of 7 to 15.                              
  
      6  -3.45240149E+003 -6.00498688E+000   5.05777715E-004     270.42  <-- SCF
 Warning: There are no empty bands for at least one kpoint and spin; this may
          slow the convergence and/or lead to an inaccurate groundstate.
          If this warning persists, you should consider increasing nextra_bands
          and/or reducing smearing_width in the param file.
          Recommend using nextra_bands of 7 to 15.                              
  
      7  -3.45240133E+003 -6.00488339E+000  -4.04911639E-005     271.66  <-- SCF
 Warning: There are no empty bands for at least one kpoint and spin; this may
          slow the convergence and/or lead to an inaccurate groundstate.
          If this warning persists, you should consider increasing nextra_bands
          and/or reducing smearing_width in the param file.
          Recommend using nextra_bands of 7 to 15.                              
  
      8  -3.45240148E+003 -6.00494981E+000   3.57244101E-005     272.77  <-- SCF
 Warning: There are no empty bands for at least one kpoint and spin; this may
          slow the convergence and/or lead to an inaccurate groundstate.
          If this warning persists, you should consider increasing nextra_bands
          and/or reducing smearing_width in the param file.
          Recommend using nextra_bands of 7 to 15.                              
  
      9  -3.45240148E+003 -6.00495407E+000   1.81032216E-006     273.84  <-- SCF
 Warning: There are no empty bands for at least one kpoint and spin; this may
          slow the convergence and/or lead to an inaccurate groundstate.
          If this warning persists, you should consider increasing nextra_bands
          and/or reducing smearing_width in the param file.
          Recommend using nextra_bands of 7 to 15.                              
  
     10  -3.45240149E+003 -6.00496967E+000   1.19039171E-006     274.91  <-- SCF
 Warning: There are no empty bands for at least one kpoint and spin; this may
          slow the convergence and/or lead to an inaccurate groundstate.
          If this warning persists, you should consider increasing nextra_bands
          and/or reducing smearing_width in the param file.
          Recommend using nextra_bands of 7 to 15.                              
  
     11  -3.45240150E+003 -6.00502482E+000   1.96275794E-006     275.98  <-- SCF
 Warning: There are no empty bands for at least one kpoint and spin; this may
          slow the convergence and/or lead to an inaccurate groundstate.
          If this warning persists, you should consider increasing nextra_bands
          and/or reducing smearing_width in the param file.
          Recommend using nextra_bands of 7 to 15.                              
  
     12  -3.45240150E+003 -6.00510316E+000   8.39917944E-007     277.05  <-- SCF
 Warning: There are no empty bands for at least one kpoint and spin; this may
          slow the convergence and/or lead to an inaccurate groundstate.
          If this warning persists, you should consider increasing nextra_bands
          and/or reducing smearing_width in the param file.
          Recommend using nextra_bands of 7 to 15.                              
  
     13  -3.45240150E+003 -6.00513250E+000   3.50989043E-007     278.12  <-- SCF
 Warning: There are no empty bands for at least one kpoint and spin; this may
          slow the convergence and/or lead to an inaccurate groundstate.
          If this warning persists, you should consider increasing nextra_bands
          and/or reducing smearing_width in the param file.
          Recommend using nextra_bands of 7 to 15.                              
  
     14  -3.45240150E+003 -6.00519288E+000   2.16933362E-007     279.20  <-- SCF
------------------------------------------------------------------------ <-- SCF
 
Final energy, E             =  -3452.305304112     eV
Final free energy (E-TS)    =  -3452.401500835     eV
(energies not corrected for finite basis set)
 
NB est. 0K energy (E-0.5TS)      =  -3452.353402473     eV
 

Dispersion corrected final energy*, Ecor          =  -3452.783971058     eV
Dispersion corrected final free energy* (Ecor-TS) =  -3452.880167781     eV
NB dispersion corrected est. 0K energy* (Ecor-0.5TS) =  -3452.832069420     eV

 * not corrected for finite basis set

 
 *********************************** Forces ***********************************
 *                                                                            *
 *                        Cartesian components (eV/A)                         *
 * -------------------------------------------------------------------------- *
 *                   x                    y                    z              *
 *                                                                            *
 * Fe        1      0.00000              0.00000              0.00000         *
 * Fe        2      0.00000              0.00000              0.00000         *
 * Fe        3      0.00000              0.00000              0.00000         *
 * Fe        4      0.00000              0.00000              0.00000         *
 *                                                                            *
 ******************************************************************************
 
 ***************** Stress Tensor *****************
 *                                               *
 *          Cartesian components (GPa)           *
 * --------------------------------------------- *
 *             x             y             z     *
 *                                               *
 *  x     -0.007747     -0.000048      0.000000  *
 *  y     -0.000048     -0.008061      0.000000  *
 *  z      0.000000      0.000000      0.003734  *
 *                                               *
 *  Pressure:    0.0040                          *
 *                                               *
 *************************************************
  
 +------------+-------------+-------------+-----------------+ <-- min BFGS
 |    Step    |   lambda    |   F.delta   |    enthalpy     | <-- min BFGS
 +------------+-------------+-------------+-----------------+ <-- min BFGS
 |  previous  |    0.000000 |  2.842E-007 |    -3452.880072 | <-- min BFGS
 | trial step |    1.000000 | -1.688E-007 |    -3452.880078 | <-- min BFGS
 +------------+-------------+-------------+-----------------+ <-- min BFGS
  
 BFGS: finished iteration     4 with enthalpy= -3.45288008E+003 eV
  
 +-----------+-----------------+-----------------+------------+-----+ <-- BFGS
 | Parameter |      value      |    tolerance    |    units   | OK? | <-- BFGS
 +-----------+-----------------+-----------------+------------+-----+ <-- BFGS
 |  dE/ion   |   1.376195E-006 |   1.000000E-005 |         eV | Yes | <-- BFGS
 |  |F|max   |   1.646092E-006 |   2.000000E-002 |       eV/A | Yes | <-- BFGS
 |  |dR|max  |   2.976400E-009 |   1.000000E-003 |          A | Yes | <-- BFGS
 |   Smax    |   8.060608E-003 |   5.000000E-002 |        GPa | Yes | <-- BFGS
 +-----------+-----------------+-----------------+------------+-----+ <-- BFGS
  
 BFGS : Geometry optimization completed successfully.

================================================================================
 BFGS : Final Configuration:
================================================================================
 
                           -------------------------------
                                      Unit Cell
                           -------------------------------
        Real Lattice(A)              Reciprocal Lattice(1/A)
   3.9526601  -2.2820568   0.0000000        1.5896071  -0.0000037   0.0000000
   0.0000107   4.5641322   0.0000000        0.7948003   1.3766421   0.0000000
  -0.0000002  -0.0000001  19.9994273        0.0000000   0.0000000   0.3141683
 
                       Lattice parameters(A)       Cell Angles
                    a =    4.564132          alpha =   90.000000
                    b =    4.564132          beta  =   90.000001
                    c =   19.999427          gamma =  119.999729
 
                Current cell volume =  360.799426 A**3
 
                           -------------------------------
                                     Cell Contents
                           -------------------------------
 
            xxxxxxxxxxxxxxxxxxxxxxxxxxxxxxxxxxxxxxxxxxxxxxxxxxxxxxxxxxxx
            x  Element    Atom        Fractional coordinates of atoms  x
            x            Number           u          v          w      x
            x----------------------------------------------------------x
            x  Fe           1         0.333333   0.166667   0.000000   x
            x  Fe           2         0.833333   0.166667   0.000000   x
            x  Fe           3         0.333333   0.666667   0.000000   x
            x  Fe           4         0.833333   0.666667   0.000000   x
            xxxxxxxxxxxxxxxxxxxxxxxxxxxxxxxxxxxxxxxxxxxxxxxxxxxxxxxxxxxx
 
 
 BFGS : Final Enthalpy     = -3.45288008E+003 eV
 BFGS : Final <frequency>  unchanged from initial value
 BFGS : Final bulk modulus =      53.62357 GPa
 
 *********************************** Forces ***********************************
 *                                                                            *
 *                        Cartesian components (eV/A)                         *
 * -------------------------------------------------------------------------- *
 *                   x                    y                    z              *
 *                                                                            *
 * Fe        1      0.00000              0.00000              0.00000         *
 * Fe        2      0.00000              0.00000              0.00000         *
 * Fe        3      0.00000              0.00000              0.00000         *
 * Fe        4      0.00000              0.00000              0.00000         *
 *                                                                            *
 ******************************************************************************
 
 ***************** Stress Tensor *****************
 *                                               *
 *          Cartesian components (GPa)           *
 * --------------------------------------------- *
 *             x             y             z     *
 *                                               *
 *  x     -0.007747     -0.000048      0.000000  *
 *  y     -0.000048     -0.008061      0.000000  *
 *  z      0.000000      0.000000      0.003734  *
 *                                               *
 *  Pressure:    0.0040                          *
 *                                               *
 *************************************************
 
 Pseudo atomic calculation performed for Fe 3d6 4s2
 
 Converged in 35 iterations to a total energy of -855.8900 eV
 
Charge spilling parameter for spin component 1 = 0.44%
 
     Atomic Populations (Mulliken)
     -----------------------------
Species   Ion     s      p      d      f     Total  Charge (e)
==============================================================
  Fe       1     0.96   0.30   6.75   0.00   8.00     0.00
  Fe       2     0.96   0.30   6.75   0.00   8.00     0.00
  Fe       3     0.96   0.30   6.75   0.00   8.00     0.00
  Fe       4     0.96   0.30   6.75   0.00   8.00     0.00
==============================================================
 
            Bond              Population      Length (A)
============================================================
         Fe 1 -- Fe 3              0.21        2.28207
         Fe 2 -- Fe 4              0.21        2.28207
         Fe 1 -- Fe 2              0.21        2.28207
         Fe 3 -- Fe 4              0.21        2.28207
============================================================
 
 
     Hirshfeld Analysis
     ------------------
Species   Ion     Hirshfeld Charge (e)
======================================
  Fe       1                 0.00
  Fe       2                 0.00
  Fe       3                 0.00
  Fe       4                 0.00
======================================
 

Writing analysis data to HCP-Fe__0_0_1_.castep_bin

Writing model to HCP-Fe__0_0_1_.check
 
 A BibTeX formatted list of references used in this run has been written to 
 HCP-Fe__0_0_1_.bib
 
Initialisation time =      0.20 s
Calculation time    =    282.67 s
Finalisation time   =      0.30 s
Total time          =    283.17 s
