 Job started on host Stu23
 at Mon Nov  4 18:58:56 2019

 +-------------------------------------------------+
 |                                                 |
 |      CCC   AA    SSS  TTTTT  EEEEE  PPPP        |
 |     C     A  A  S       T    E      P   P       |
 |     C     AAAA   SS     T    EEE    PPPP        |
 |     C     A  A     S    T    E      P           |
 |      CCC  A  A  SSS     T    EEEEE  P           |
 |                                                 |
 +-------------------------------------------------+
 |                                                 |
 | Welcome to Materials Studio CASTEP version 7.0  |
 | Ab Initio Total Energy Program                  |
 |                                                 |
 | Authors:                                        |
 | M. Segall, M. Probert, C. Pickard, P. Hasnip,   |
 | S. Clark, K. Refson, J. R. Yates, M. Payne      |
 |                                                 |
 | Contributors:                                   |
 | P. Lindan, P. Haynes, J. White, V. Milman,      |
 | N. Govind, M. Gibson, P. Tulip, V. Cocula,      |
 | B. Montanari, D. Quigley, M. Glover,            |
 | L. Bernasconi, A. Perlov, M. Plummer,           |
 | E. McNellis, J. Meyer, J. Gale, D. Jochym       |
 | J. Aarons, B. Walker, R. Gillen, D. Jones       |
 |                                                 |
 | Copyright (c) 2000 - 2013                       |
 |                                                 |
 | Please cite                                     |
 |                                                 |
 |     "First principles methods using CASTEP"     |
 |                                                 |
 |         Zeitschrift fuer Kristallographie       |
 |           220(5-6) pp. 567-570 (2005)           |
 |                                                 |
 | S. J. Clark, M. D. Segall, C. J. Pickard,       |
 | P. J. Hasnip, M. J. Probert, K. Refson,         |
 | M. C. Payne                                     |
 |                                                 |
 |       in all publications arising from          |
 |              your use of CASTEP                 |
 |                                                 |
 +-------------------------------------------------+
 
 
 This version was compiled for x86_64-windows-msvc2008 on Nov 12 2013
 Code version: 6201
 
License checkout of MS_castep successful
 
 +---------------------------------------------------+
 |                                                   |
 |  Using DFT-SEDC - the DFT Semi-Empirical          |
 |  Dispersion interaction Correction module         |
 |  Copyright (c) 2008 Erik McNellis and Joerg Meyer |
 |  Fritz-Haber-Institut der MPG. Distributed under  |
 |  the GNU Lesser General Public License (LGPL).    |
 |                                                   |
 | Please cite the following publications in all     |
 | work arising from your use of CASTEP SEDC.        |
 |                                                   |
 | Erik R. McNellis, Joerg Meyer, and Karsten Reuter |
 | Phys. Rev. B 80, 205414 (2009)                    |
 +---------------------------------------------------+
 
 
 Pseudo atomic calculation performed for Fe 3d6 4s2
 
 Converged in 35 iterations to a total energy of -855.8900 eV
 
 Calculation not parallelised.

 ************************************ Title ************************************
 CASTEP calculation from Materials Studio

 ***************************** General Parameters ******************************
  
 output verbosity                               : normal  (1)
 write checkpoint data to                       : FCC-Fe__1_0_0_.check
 type of calculation                            : geometry optimization
 stress calculation                             : on
 density difference calculation                 : off
 electron localisation func (ELF) calculation   : off
 Hirshfeld analysis                             : on
 unlimited duration calculation
 timing information                             : on
 memory usage estimate                          : on
 write final potential to formatted file        : off
 write final density to formatted file          : off
 write BibTeX reference list                    : on
  
 output         length unit                     : A
 output           mass unit                     : amu
 output           time unit                     : ps
 output         charge unit                     : e
 output         energy unit                     : eV
 output          force unit                     : eV/A
 output       velocity unit                     : A/ps
 output       pressure unit                     : GPa
 output     inv_length unit                     : 1/A
 output      frequency unit                     : cm-1
 output force constant unit                     : eV/A**2
 output         volume unit                     : A**3
 output   IR intensity unit                     : (D/A)**2/amu
 output         dipole unit                     : D
 output         efield unit                     : eV/A/e
 output        entropy unit                     : J/mol/K
  
 wavefunctions paging                           : none
 random number generator seed                   : randomised (185859251)
 data distribution                              : optimal for this architecture
 optimization strategy                          : balance speed and memory

 *********************** Exchange-Correlation Parameters ***********************
  
 using functional                               : Perdew Burke Ernzerhof
 Divergence correction                          : off
 DFT+D: Semi-empirical dispersion correction    : on
 SEDC with                                      : G06 correction scheme

 ************************* Pseudopotential Parameters **************************
  
 pseudopotential representation                 : reciprocal space
 <beta|phi> representation                      : reciprocal space

 **************************** Basis Set Parameters *****************************
  
 plane wave basis set cut-off                   :   400.0000   eV
 size of standard grid                          :     1.7500
 size of   fine   gmax                          :    17.9311   1/A
 largest prime factor in FFT                    :          5
 finite basis set correction                    : automatic
 number of sample energies                      :          3
           sample  spacing                      :     5.0000   eV

 **************************** Electronic Parameters ****************************
  
 number of  electrons                           :  32.00    
 net charge of system                           :  0.000    
 net spin   of system                           :  0.000    
 number of  up  spins                           :  16.00    
 number of down spins                           :  16.00    
 treating system as non-spin-polarized
 number of bands                                :         20

 ********************* Electronic Minimization Parameters **********************
  
 Method: Treating system as metallic with density mixing treatment of electrons,
         and number of  SD  steps               :          1
         and number of  CG  steps               :          4
  
 total energy / atom convergence tol.           : 0.1000E-05   eV
 eigen-energy convergence tolerance             : 0.2000E-06   eV
 max force / atom convergence tol.              : ignored
 convergence tolerance window                   :          3   cycles
 max. number of SCF cycles                      :        100
 number of fixed-spin iterations                :         10
 smearing scheme                                : Gaussian
 smearing width                                 : 0.1000       eV
 Fermi energy convergence tolerance             : 0.2721E-13   eV
 periodic dipole correction                     : NONE

 ************************** Density Mixing Parameters **************************
  
 density-mixing scheme                          : Pulay
 max. length of mixing history                  :         20
 charge density mixing amplitude                : 0.5000    
 cut-off energy for mixing                      :  400.0       eV
 charge density mixing g-vector                 :  1.500       1/A

 *********************** Population Analysis Parameters ************************
  
 Population analysis with cutoff                :  3.000       A

 ********************** Geometry Optimization Parameters ***********************
  
 optimization method                            : BFGS
 variable cell method                           : fixed basis quality
 max. number of steps                           :        100
 estimated bulk modulus                         :  500.0       GPa
 estimated <frequency>                          :  1668.       cm-1
 geom line minimiser                            : on
 with line minimiser tolerance                  :     0.4000
 total energy convergence tolerance             : 0.1000E-04   eV/atom
        max ionic |force| tolerance             : 0.2000E-01   eV/A
 max ionic |displacement| tolerance             : 0.1000E-02   A
   max |stress component| tolerance             : 0.5000E-01   GPa
 convergence tolerance window                   :          2   steps
 backup results every                           :          5   steps

 *******************************************************************************
  
 
                           -------------------------------
                                      Unit Cell
                           -------------------------------
        Real Lattice(A)                      Reciprocal Lattice(1/A)
   4.9172206   0.0000000   0.0000000        1.2777920   0.0000000   0.0000000
   0.0000000   4.9172206   0.0000000        0.0000000   1.2777920   0.0000000
   0.0000000   0.0000000  20.0000000        0.0000000   0.0000000   0.3141593
 
                       Lattice parameters(A)       Cell Angles
                    a =    4.917221          alpha =   90.000000
                    b =    4.917221          beta  =   90.000000
                    c =   20.000000          gamma =   90.000000
 
                       Current cell volume =  483.581160       A**3
 
                           -------------------------------
                                     Cell Contents
                           -------------------------------
                         Total number of ions in cell =    4
                      Total number of species in cell =    1
                        Max number of any one species =    4
 
            xxxxxxxxxxxxxxxxxxxxxxxxxxxxxxxxxxxxxxxxxxxxxxxxxxxxxxxxxxxx
            x  Element    Atom        Fractional coordinates of atoms  x
            x            Number           u          v          w      x
            x----------------------------------------------------------x
            x  Fe           1         0.000000   0.000000   0.000000   x 
            x  Fe           2         0.500000   0.000000   0.000000   x 
            x  Fe           3         0.000000   0.500000   0.000000   x 
            x  Fe           4         0.500000   0.500000   0.000000   x 
            xxxxxxxxxxxxxxxxxxxxxxxxxxxxxxxxxxxxxxxxxxxxxxxxxxxxxxxxxxxx
 
 
                         No user defined ionic velocities
 
                           -------------------------------
                                   Details of Species
                           -------------------------------
 
                               Mass of species in AMU
                                    Fe   55.8470001
 
                          Electric Quadrupole Moment (Barn)
                                    Fe    0.1600000 Isotope 57
 
                          Files used for pseudopotentials:
                                    Fe Fe_00PBE.uspcc
 
                           -------------------------------
                              k-Points For BZ Sampling
                           -------------------------------
                       MP grid size for SCF calculation is  3  3  1
                         Number of kpoints used =           5
 
             +++++++++++++++++++++++++++++++++++++++++++++++++++++++
             +  Number       Fractional coordinates        Weight  +
             +-----------------------------------------------------+
             +     1   0.333333   0.333333   0.000000   0.2222222  +
             +     2   0.333333   0.000000   0.000000   0.2222222  +
             +     3   0.333333  -0.333333   0.000000   0.2222222  +
             +     4   0.000000   0.333333   0.000000   0.2222222  +
             +     5   0.000000   0.000000   0.000000   0.1111111  +
             +++++++++++++++++++++++++++++++++++++++++++++++++++++++
 
                           -------------------------------
                               Symmetry and Constraints
                           -------------------------------
 
                      Cell is a supercell containing 4 primitive cells
                      Maximum deviation from symmetry =  0.00000         ANG
 
         There are no symmetry operations specified or generated for this cell
         There are no ionic constraints specified or generated for this cell
                      Point group of crystal =     1: C1, 1, 1
 
 
                         Centre of mass is NOT constrained
 
                         Number of cell constraints= 0
                         Cell constraints are:  1 2 3 4 5 6
 
                         External pressure/stress (GPa)
                          0.00000   0.00000   0.00000
                                    0.00000   0.00000
                                              0.00000
 
                                --------------------
                                  DFT-D parameters
                                --------------------
 
                          Dispersion-correction scheme : G06                                                                             
                        Parameter s6 :   0.750000 (default)
                        Parameter d :  20.000000 (default)
 
        xxxxxxxxxxxxxxxxxxxxxxxxxxxxxxxxxxxxxxxxxxxxxxxxxxxxxxxxxxxxxxxxxxxx
        x              Atomic DFT-D parameters                             x
        x  Species      C6            R0                                   x
        x               eV A^6        Ang                                  x
        x------------------------------------------------------------------x
        x  Fe          111.9341       1.5620   (default)                   x
        xxxxxxxxxxxxxxxxxxxxxxxxxxxxxxxxxxxxxxxxxxxxxxxxxxxxxxxxxxxxxxxxxxxx
 
  
+---------------- MEMORY AND SCRATCH DISK ESTIMATES PER PROCESS --------------+
|                                                     Memory          Disk    |
| Model and support data                               89.0 MB        64.8 MB |
| Electronic energy minimisation requirements          28.4 MB        13.4 MB |
|                                               ----------------------------- |
| Approx. total storage required per process          117.4 MB        78.3 MB |
|                                                                             |
| Requirements will fluctuate during execution and may exceed these estimates |
+-----------------------------------------------------------------------------+
Calculating finite basis set correction with  3 cut-off energies.
Calculating total energy with cut-off of  390.000eV.
------------------------------------------------------------------------ <-- SCF
SCF loop      Energy           Fermi           Energy gain       Timer   <-- SCF
                               energy          per atom          (sec)   <-- SCF
------------------------------------------------------------------------ <-- SCF
Initial  -9.27031677E+002  0.00000000E+000                         0.66  <-- SCF
      1  -3.25950796E+003  8.64308445E-001   5.83119071E+002       3.09  <-- SCF
      2  -3.43556777E+003 -7.77676282E+000   4.40149519E+001       5.09  <-- SCF
 Warning: There are no empty bands for at least one kpoint and spin; this may
          slow the convergence and/or lead to an inaccurate groundstate.
          If this warning persists, you should consider increasing nextra_bands
          and/or reducing smearing_width in the param file.
          Recommend using nextra_bands of 7 to 15.                              
  
      3  -3.44867120E+003 -8.10829512E+000   3.27585904E+000       7.72  <-- SCF
 Warning: There are no empty bands for at least one kpoint and spin; this may
          slow the convergence and/or lead to an inaccurate groundstate.
          If this warning persists, you should consider increasing nextra_bands
          and/or reducing smearing_width in the param file.
          Recommend using nextra_bands of 7 to 15.                              
  
      4  -3.45030471E+003 -8.10158777E+000   4.08376813E-001      10.64  <-- SCF
 Warning: There are no empty bands for at least one kpoint and spin; this may
          slow the convergence and/or lead to an inaccurate groundstate.
          If this warning persists, you should consider increasing nextra_bands
          and/or reducing smearing_width in the param file.
          Recommend using nextra_bands of 7 to 15.                              
  
      5  -3.45019830E+003 -6.17125241E+000  -2.66034622E-002      13.27  <-- SCF
 Warning: There are no empty bands for at least one kpoint and spin; this may
          slow the convergence and/or lead to an inaccurate groundstate.
          If this warning persists, you should consider increasing nextra_bands
          and/or reducing smearing_width in the param file.
          Recommend using nextra_bands of 7 to 15.                              
  
      6  -3.45343223E+003 -6.44816181E+000   8.08481999E-001      16.64  <-- SCF
 Warning: There are no empty bands for at least one kpoint and spin; this may
          slow the convergence and/or lead to an inaccurate groundstate.
          If this warning persists, you should consider increasing nextra_bands
          and/or reducing smearing_width in the param file.
          Recommend using nextra_bands of 7 to 15.                              
  
      7  -3.45033455E+003 -6.65310781E+000  -7.74419965E-001      20.09  <-- SCF
 Warning: There are no empty bands for at least one kpoint and spin; this may
          slow the convergence and/or lead to an inaccurate groundstate.
          If this warning persists, you should consider increasing nextra_bands
          and/or reducing smearing_width in the param file.
          Recommend using nextra_bands of 7 to 15.                              
  
      8  -3.44861559E+003 -6.80715598E+000  -4.29740071E-001      23.45  <-- SCF
 Warning: There are no empty bands for at least one kpoint and spin; this may
          slow the convergence and/or lead to an inaccurate groundstate.
          If this warning persists, you should consider increasing nextra_bands
          and/or reducing smearing_width in the param file.
          Recommend using nextra_bands of 7 to 15.                              
  
      9  -3.44881892E+003 -6.83266894E+000   5.08327010E-002      26.67  <-- SCF
 Warning: There are no empty bands for at least one kpoint and spin; this may
          slow the convergence and/or lead to an inaccurate groundstate.
          If this warning persists, you should consider increasing nextra_bands
          and/or reducing smearing_width in the param file.
          Recommend using nextra_bands of 7 to 15.                              
  
     10  -3.44897995E+003 -6.77559994E+000   4.02583078E-002      29.44  <-- SCF
 Warning: There are no empty bands for at least one kpoint and spin; this may
          slow the convergence and/or lead to an inaccurate groundstate.
          If this warning persists, you should consider increasing nextra_bands
          and/or reducing smearing_width in the param file.
          Recommend using nextra_bands of 7 to 15.                              
  
     11  -3.44903578E+003 -6.57373482E+000   1.39575425E-002      32.34  <-- SCF
 Warning: There are no empty bands for at least one kpoint and spin; this may
          slow the convergence and/or lead to an inaccurate groundstate.
          If this warning persists, you should consider increasing nextra_bands
          and/or reducing smearing_width in the param file.
          Recommend using nextra_bands of 7 to 15.                              
  
     12  -3.44900613E+003 -6.50723362E+000  -7.41184994E-003      34.88  <-- SCF
 Warning: There are no empty bands for at least one kpoint and spin; this may
          slow the convergence and/or lead to an inaccurate groundstate.
          If this warning persists, you should consider increasing nextra_bands
          and/or reducing smearing_width in the param file.
          Recommend using nextra_bands of 7 to 15.                              
  
     13  -3.44902704E+003 -6.39679244E+000   5.22797298E-003      37.78  <-- SCF
 Warning: There are no empty bands for at least one kpoint and spin; this may
          slow the convergence and/or lead to an inaccurate groundstate.
          If this warning persists, you should consider increasing nextra_bands
          and/or reducing smearing_width in the param file.
          Recommend using nextra_bands of 7 to 15.                              
  
     14  -3.44902543E+003 -6.30481393E+000  -4.03551064E-004      40.66  <-- SCF
 Warning: There are no empty bands for at least one kpoint and spin; this may
          slow the convergence and/or lead to an inaccurate groundstate.
          If this warning persists, you should consider increasing nextra_bands
          and/or reducing smearing_width in the param file.
          Recommend using nextra_bands of 7 to 15.                              
  
     15  -3.44901289E+003 -6.20137149E+000  -3.13443755E-003      43.27  <-- SCF
 Warning: There are no empty bands for at least one kpoint and spin; this may
          slow the convergence and/or lead to an inaccurate groundstate.
          If this warning persists, you should consider increasing nextra_bands
          and/or reducing smearing_width in the param file.
          Recommend using nextra_bands of 7 to 15.                              
  
     16  -3.44900973E+003 -6.13500322E+000  -7.89234684E-004      46.03  <-- SCF
 Warning: There are no empty bands for at least one kpoint and spin; this may
          slow the convergence and/or lead to an inaccurate groundstate.
          If this warning persists, you should consider increasing nextra_bands
          and/or reducing smearing_width in the param file.
          Recommend using nextra_bands of 7 to 15.                              
  
     17  -3.44901120E+003 -6.03330087E+000   3.67184650E-004      48.72  <-- SCF
 Warning: There are no empty bands for at least one kpoint and spin; this may
          slow the convergence and/or lead to an inaccurate groundstate.
          If this warning persists, you should consider increasing nextra_bands
          and/or reducing smearing_width in the param file.
          Recommend using nextra_bands of 7 to 15.                              
  
     18  -3.44900691E+003 -5.96933969E+000  -1.07309079E-003      51.17  <-- SCF
 Warning: There are no empty bands for at least one kpoint and spin; this may
          slow the convergence and/or lead to an inaccurate groundstate.
          If this warning persists, you should consider increasing nextra_bands
          and/or reducing smearing_width in the param file.
          Recommend using nextra_bands of 7 to 15.                              
  
     19  -3.44900393E+003 -5.92470546E+000  -7.46318015E-004      53.73  <-- SCF
 Warning: There are no empty bands for at least one kpoint and spin; this may
          slow the convergence and/or lead to an inaccurate groundstate.
          If this warning persists, you should consider increasing nextra_bands
          and/or reducing smearing_width in the param file.
          Recommend using nextra_bands of 7 to 15.                              
  
     20  -3.44900447E+003 -5.86513031E+000   1.36766353E-004      56.05  <-- SCF
 Warning: There are no empty bands for at least one kpoint and spin; this may
          slow the convergence and/or lead to an inaccurate groundstate.
          If this warning persists, you should consider increasing nextra_bands
          and/or reducing smearing_width in the param file.
          Recommend using nextra_bands of 7 to 15.                              
  
     21  -3.44900677E+003 -5.80897518E+000   5.75011433E-004      58.23  <-- SCF
 Warning: There are no empty bands for at least one kpoint and spin; this may
          slow the convergence and/or lead to an inaccurate groundstate.
          If this warning persists, you should consider increasing nextra_bands
          and/or reducing smearing_width in the param file.
          Recommend using nextra_bands of 7 to 15.                              
  
     22  -3.44900956E+003 -5.78345535E+000   6.96701964E-004      60.23  <-- SCF
 Warning: There are no empty bands for at least one kpoint and spin; this may
          slow the convergence and/or lead to an inaccurate groundstate.
          If this warning persists, you should consider increasing nextra_bands
          and/or reducing smearing_width in the param file.
          Recommend using nextra_bands of 7 to 15.                              
  
     23  -3.44901043E+003 -5.75133158E+000   2.18216912E-004      62.53  <-- SCF
 Warning: There are no empty bands for at least one kpoint and spin; this may
          slow the convergence and/or lead to an inaccurate groundstate.
          If this warning persists, you should consider increasing nextra_bands
          and/or reducing smearing_width in the param file.
          Recommend using nextra_bands of 7 to 15.                              
  
     24  -3.44901081E+003 -5.69977928E+000   9.50385393E-005      64.86  <-- SCF
 Warning: There are no empty bands for at least one kpoint and spin; this may
          slow the convergence and/or lead to an inaccurate groundstate.
          If this warning persists, you should consider increasing nextra_bands
          and/or reducing smearing_width in the param file.
          Recommend using nextra_bands of 7 to 15.                              
  
     25  -3.44901098E+003 -5.66021990E+000   4.18635202E-005      66.97  <-- SCF
 Warning: There are no empty bands for at least one kpoint and spin; this may
          slow the convergence and/or lead to an inaccurate groundstate.
          If this warning persists, you should consider increasing nextra_bands
          and/or reducing smearing_width in the param file.
          Recommend using nextra_bands of 7 to 15.                              
  
     26  -3.44901157E+003 -5.64427632E+000   1.46265273E-004      69.56  <-- SCF
 Warning: There are no empty bands for at least one kpoint and spin; this may
          slow the convergence and/or lead to an inaccurate groundstate.
          If this warning persists, you should consider increasing nextra_bands
          and/or reducing smearing_width in the param file.
          Recommend using nextra_bands of 7 to 15.                              
  
     27  -3.44901174E+003 -5.62666612E+000   4.29196568E-005      71.73  <-- SCF
 Warning: There are no empty bands for at least one kpoint and spin; this may
          slow the convergence and/or lead to an inaccurate groundstate.
          If this warning persists, you should consider increasing nextra_bands
          and/or reducing smearing_width in the param file.
          Recommend using nextra_bands of 7 to 15.                              
  
     28  -3.44901281E+003 -5.60961293E+000   2.68231067E-004      73.56  <-- SCF
 Warning: There are no empty bands for at least one kpoint and spin; this may
          slow the convergence and/or lead to an inaccurate groundstate.
          If this warning persists, you should consider increasing nextra_bands
          and/or reducing smearing_width in the param file.
          Recommend using nextra_bands of 7 to 15.                              
  
     29  -3.44901328E+003 -5.59904877E+000   1.17032814E-004      75.17  <-- SCF
 Warning: There are no empty bands for at least one kpoint and spin; this may
          slow the convergence and/or lead to an inaccurate groundstate.
          If this warning persists, you should consider increasing nextra_bands
          and/or reducing smearing_width in the param file.
          Recommend using nextra_bands of 7 to 15.                              
  
     30  -3.44901363E+003 -5.59629042E+000   8.85488380E-005      76.66  <-- SCF
 Warning: There are no empty bands for at least one kpoint and spin; this may
          slow the convergence and/or lead to an inaccurate groundstate.
          If this warning persists, you should consider increasing nextra_bands
          and/or reducing smearing_width in the param file.
          Recommend using nextra_bands of 7 to 15.                              
  
     31  -3.44901398E+003 -5.59199904E+000   8.72485536E-005      78.17  <-- SCF
 Warning: There are no empty bands for at least one kpoint and spin; this may
          slow the convergence and/or lead to an inaccurate groundstate.
          If this warning persists, you should consider increasing nextra_bands
          and/or reducing smearing_width in the param file.
          Recommend using nextra_bands of 7 to 15.                              
  
     32  -3.44901411E+003 -5.59171392E+000   3.33463894E-005      79.69  <-- SCF
 Warning: There are no empty bands for at least one kpoint and spin; this may
          slow the convergence and/or lead to an inaccurate groundstate.
          If this warning persists, you should consider increasing nextra_bands
          and/or reducing smearing_width in the param file.
          Recommend using nextra_bands of 7 to 15.                              
  
     33  -3.44901424E+003 -5.59112341E+000   3.17282882E-005      81.23  <-- SCF
 Warning: There are no empty bands for at least one kpoint and spin; this may
          slow the convergence and/or lead to an inaccurate groundstate.
          If this warning persists, you should consider increasing nextra_bands
          and/or reducing smearing_width in the param file.
          Recommend using nextra_bands of 7 to 15.                              
  
     34  -3.44901429E+003 -5.59130384E+000   1.14434495E-005      82.73  <-- SCF
 Warning: There are no empty bands for at least one kpoint and spin; this may
          slow the convergence and/or lead to an inaccurate groundstate.
          If this warning persists, you should consider increasing nextra_bands
          and/or reducing smearing_width in the param file.
          Recommend using nextra_bands of 7 to 15.                              
  
     35  -3.44901433E+003 -5.59175144E+000   1.05269246E-005      84.27  <-- SCF
 Warning: There are no empty bands for at least one kpoint and spin; this may
          slow the convergence and/or lead to an inaccurate groundstate.
          If this warning persists, you should consider increasing nextra_bands
          and/or reducing smearing_width in the param file.
          Recommend using nextra_bands of 7 to 15.                              
  
     36  -3.44901433E+003 -5.59156039E+000   9.45008663E-007      85.78  <-- SCF
 Warning: There are no empty bands for at least one kpoint and spin; this may
          slow the convergence and/or lead to an inaccurate groundstate.
          If this warning persists, you should consider increasing nextra_bands
          and/or reducing smearing_width in the param file.
          Recommend using nextra_bands of 7 to 15.                              
  
     37  -3.44901433E+003 -5.59152269E+000   3.16343309E-007      87.30  <-- SCF
 Warning: There are no empty bands for at least one kpoint and spin; this may
          slow the convergence and/or lead to an inaccurate groundstate.
          If this warning persists, you should consider increasing nextra_bands
          and/or reducing smearing_width in the param file.
          Recommend using nextra_bands of 7 to 15.                              
  
     38  -3.44901434E+003 -5.59153047E+000   2.87730725E-007      88.78  <-- SCF
------------------------------------------------------------------------ <-- SCF
 
Final energy, E             =  -3448.813475938     eV
Final free energy (E-TS)    =  -3449.014335695     eV
(energies not corrected for finite basis set)
 
NB est. 0K energy (E-0.5TS)      =  -3448.913905816     eV
 

Dispersion corrected final energy*, Ecor          =  -3449.321379044     eV
Dispersion corrected final free energy* (Ecor-TS) =  -3449.522238801     eV
NB dispersion corrected est. 0K energy* (Ecor-0.5TS) =  -3449.421808922     eV

 * not corrected for finite basis set

Calculating total energy with cut-off of  395.000eV.
------------------------------------------------------------------------ <-- SCF
SCF loop      Energy           Fermi           Energy gain       Timer   <-- SCF
                               energy          per atom          (sec)   <-- SCF
------------------------------------------------------------------------ <-- SCF
Initial  -3.44881348E+003  0.00000000E+000                        89.59  <-- SCF
 Warning: There are no empty bands for at least one kpoint and spin; this may
          slow the convergence and/or lead to an inaccurate groundstate.
          If this warning persists, you should consider increasing nextra_bands
          and/or reducing smearing_width in the param file.
          Recommend using nextra_bands of 7 to 15.                              
  
      1  -3.44901482E+003 -5.59151368E+000   5.03353799E-002      91.47  <-- SCF
 Warning: There are no empty bands for at least one kpoint and spin; this may
          slow the convergence and/or lead to an inaccurate groundstate.
          If this warning persists, you should consider increasing nextra_bands
          and/or reducing smearing_width in the param file.
          Recommend using nextra_bands of 7 to 15.                              
  
      2  -3.44901482E+003 -5.59151369E+000   2.31751399E-008      93.02  <-- SCF
 Warning: There are no empty bands for at least one kpoint and spin; this may
          slow the convergence and/or lead to an inaccurate groundstate.
          If this warning persists, you should consider increasing nextra_bands
          and/or reducing smearing_width in the param file.
          Recommend using nextra_bands of 7 to 15.                              
  
      3  -3.44901498E+003 -5.59177830E+000   4.14670004E-005      95.67  <-- SCF
 Warning: There are no empty bands for at least one kpoint and spin; this may
          slow the convergence and/or lead to an inaccurate groundstate.
          If this warning persists, you should consider increasing nextra_bands
          and/or reducing smearing_width in the param file.
          Recommend using nextra_bands of 7 to 15.                              
  
      4  -3.44901421E+003 -5.59175742E+000  -1.94034527E-004      98.39  <-- SCF
 Warning: There are no empty bands for at least one kpoint and spin; this may
          slow the convergence and/or lead to an inaccurate groundstate.
          If this warning persists, you should consider increasing nextra_bands
          and/or reducing smearing_width in the param file.
          Recommend using nextra_bands of 7 to 15.                              
  
      5  -3.44901478E+003 -5.59174350E+000   1.42882739E-004     100.02  <-- SCF
 Warning: There are no empty bands for at least one kpoint and spin; this may
          slow the convergence and/or lead to an inaccurate groundstate.
          If this warning persists, you should consider increasing nextra_bands
          and/or reducing smearing_width in the param file.
          Recommend using nextra_bands of 7 to 15.                              
  
      6  -3.44901482E+003 -5.59152980E+000   9.21075326E-006     101.52  <-- SCF
 Warning: There are no empty bands for at least one kpoint and spin; this may
          slow the convergence and/or lead to an inaccurate groundstate.
          If this warning persists, you should consider increasing nextra_bands
          and/or reducing smearing_width in the param file.
          Recommend using nextra_bands of 7 to 15.                              
  
      7  -3.44901482E+003 -5.59151841E+000   1.33708040E-007     102.98  <-- SCF
 Warning: There are no empty bands for at least one kpoint and spin; this may
          slow the convergence and/or lead to an inaccurate groundstate.
          If this warning persists, you should consider increasing nextra_bands
          and/or reducing smearing_width in the param file.
          Recommend using nextra_bands of 7 to 15.                              
  
      8  -3.44901482E+003 -5.59144254E+000  -1.59288049E-007     104.48  <-- SCF
------------------------------------------------------------------------ <-- SCF
 
Final energy, E             =  -3448.813955193     eV
Final free energy (E-TS)    =  -3449.014816721     eV
(energies not corrected for finite basis set)
 
NB est. 0K energy (E-0.5TS)      =  -3448.914385957     eV
 

Dispersion corrected final energy*, Ecor          =  -3449.321858299     eV
Dispersion corrected final free energy* (Ecor-TS) =  -3449.522719827     eV
NB dispersion corrected est. 0K energy* (Ecor-0.5TS) =  -3449.422289063     eV

 * not corrected for finite basis set

Calculating total energy with cut-off of  400.000eV.
------------------------------------------------------------------------ <-- SCF
SCF loop      Energy           Fermi           Energy gain       Timer   <-- SCF
                               energy          per atom          (sec)   <-- SCF
------------------------------------------------------------------------ <-- SCF
Initial  -3.44881396E+003  0.00000000E+000                       105.28  <-- SCF
 Warning: There are no empty bands for at least one kpoint and spin; this may
          slow the convergence and/or lead to an inaccurate groundstate.
          If this warning persists, you should consider increasing nextra_bands
          and/or reducing smearing_width in the param file.
          Recommend using nextra_bands of 7 to 15.                              
  
      1  -3.44901551E+003 -5.59171290E+000   5.03870582E-002     107.19  <-- SCF
 Warning: There are no empty bands for at least one kpoint and spin; this may
          slow the convergence and/or lead to an inaccurate groundstate.
          If this warning persists, you should consider increasing nextra_bands
          and/or reducing smearing_width in the param file.
          Recommend using nextra_bands of 7 to 15.                              
  
      2  -3.44901551E+003 -5.59171292E+000   9.27812826E-008     108.73  <-- SCF
 Warning: There are no empty bands for at least one kpoint and spin; this may
          slow the convergence and/or lead to an inaccurate groundstate.
          If this warning persists, you should consider increasing nextra_bands
          and/or reducing smearing_width in the param file.
          Recommend using nextra_bands of 7 to 15.                              
  
      3  -3.44902395E+003 -5.59148092E+000   2.11191757E-003     111.84  <-- SCF
 Warning: There are no empty bands for at least one kpoint and spin; this may
          slow the convergence and/or lead to an inaccurate groundstate.
          If this warning persists, you should consider increasing nextra_bands
          and/or reducing smearing_width in the param file.
          Recommend using nextra_bands of 7 to 15.                              
  
      4  -3.44900182E+003 -5.59169597E+000  -5.53240473E-003     114.86  <-- SCF
 Warning: There are no empty bands for at least one kpoint and spin; this may
          slow the convergence and/or lead to an inaccurate groundstate.
          If this warning persists, you should consider increasing nextra_bands
          and/or reducing smearing_width in the param file.
          Recommend using nextra_bands of 7 to 15.                              
  
      5  -3.44901520E+003 -5.59177698E+000   3.34401881E-003     116.94  <-- SCF
 Warning: There are no empty bands for at least one kpoint and spin; this may
          slow the convergence and/or lead to an inaccurate groundstate.
          If this warning persists, you should consider increasing nextra_bands
          and/or reducing smearing_width in the param file.
          Recommend using nextra_bands of 7 to 15.                              
  
      6  -3.44901547E+003 -5.59184233E+000   6.78297681E-005     118.66  <-- SCF
 Warning: There are no empty bands for at least one kpoint and spin; this may
          slow the convergence and/or lead to an inaccurate groundstate.
          If this warning persists, you should consider increasing nextra_bands
          and/or reducing smearing_width in the param file.
          Recommend using nextra_bands of 7 to 15.                              
  
      7  -3.44901546E+003 -5.59172532E+000  -3.72332805E-006     120.08  <-- SCF
 Warning: There are no empty bands for at least one kpoint and spin; this may
          slow the convergence and/or lead to an inaccurate groundstate.
          If this warning persists, you should consider increasing nextra_bands
          and/or reducing smearing_width in the param file.
          Recommend using nextra_bands of 7 to 15.                              
  
      8  -3.44901547E+003 -5.59143840E+000   3.24604482E-006     121.55  <-- SCF
 Warning: There are no empty bands for at least one kpoint and spin; this may
          slow the convergence and/or lead to an inaccurate groundstate.
          If this warning persists, you should consider increasing nextra_bands
          and/or reducing smearing_width in the param file.
          Recommend using nextra_bands of 7 to 15.                              
  
      9  -3.44901548E+003 -5.59145439E+000   3.83816662E-006     123.02  <-- SCF
 Warning: There are no empty bands for at least one kpoint and spin; this may
          slow the convergence and/or lead to an inaccurate groundstate.
          If this warning persists, you should consider increasing nextra_bands
          and/or reducing smearing_width in the param file.
          Recommend using nextra_bands of 7 to 15.                              
  
     10  -3.44901549E+003 -5.59143095E+000   1.07431039E-006     124.48  <-- SCF
 Warning: There are no empty bands for at least one kpoint and spin; this may
          slow the convergence and/or lead to an inaccurate groundstate.
          If this warning persists, you should consider increasing nextra_bands
          and/or reducing smearing_width in the param file.
          Recommend using nextra_bands of 7 to 15.                              
  
     11  -3.44901549E+003 -5.59147979E+000   2.53580640E-007     125.97  <-- SCF
 Warning: There are no empty bands for at least one kpoint and spin; this may
          slow the convergence and/or lead to an inaccurate groundstate.
          If this warning persists, you should consider increasing nextra_bands
          and/or reducing smearing_width in the param file.
          Recommend using nextra_bands of 7 to 15.                              
  
     12  -3.44901549E+003 -5.59141031E+000   1.75080755E-007     127.45  <-- SCF
------------------------------------------------------------------------ <-- SCF
 
Final energy, E             =  -3448.814624555     eV
Final free energy (E-TS)    =  -3449.015490451     eV
(energies not corrected for finite basis set)
 
NB est. 0K energy (E-0.5TS)      =  -3448.915057503     eV
 

Dispersion corrected final energy*, Ecor          =  -3449.322527661     eV
Dispersion corrected final free energy* (Ecor-TS) =  -3449.523393557     eV
NB dispersion corrected est. 0K energy* (Ecor-0.5TS) =  -3449.422960609     eV

 * not corrected for finite basis set

 For future reference: finite basis dEtot/dlog(Ecut) =      -0.044803eV
 Total energy corrected for finite basis set =   -3449.523397 eV
 
+---------------- MEMORY AND SCRATCH DISK ESTIMATES PER PROCESS --------------+
|                                                     Memory          Disk    |
| Model and support data                               89.0 MB        64.8 MB |
| Electronic energy minimisation requirements          28.4 MB        13.4 MB |
| Geometry minimisation requirements                   42.8 MB        13.4 MB |
|                                               ----------------------------- |
| Approx. total storage required per process          160.1 MB        91.7 MB |
|                                                                             |
| Requirements will fluctuate during execution and may exceed these estimates |
+-----------------------------------------------------------------------------+
 
 
 *********************************** Forces ***********************************
 *                                                                            *
 *                        Cartesian components (eV/A)                         *
 * -------------------------------------------------------------------------- *
 *                   x                    y                    z              *
 *                                                                            *
 * Fe        1     -0.00001              0.00000             -0.00003         *
 * Fe        2      0.00001              0.00000             -0.00012         *
 * Fe        3      0.00001              0.00000              0.00012         *
 * Fe        4     -0.00001              0.00000              0.00003         *
 *                                                                            *
 ******************************************************************************
 
 ***************** Stress Tensor *****************
 *                                               *
 *          Cartesian components (GPa)           *
 * --------------------------------------------- *
 *             x             y             z     *
 *                                               *
 *  x      5.978549      0.000001      0.000012  *
 *  y      0.000001      5.978661      0.000014  *
 *  z      0.000012      0.000014      0.000856  *
 *                                               *
 *  Pressure:   -3.9860                          *
 *                                               *
 *************************************************
 BFGS: finished iteration     0 with enthalpy= -3.44952340E+003 eV
  
 +-----------+-----------------+-----------------+------------+-----+ <-- BFGS
 | Parameter |      value      |    tolerance    |    units   | OK? | <-- BFGS
 +-----------+-----------------+-----------------+------------+-----+ <-- BFGS
 |  dE/ion   |   0.000000E+000 |   1.000000E-005 |         eV | No  | <-- BFGS
 |  |F|max   |   1.192609E-004 |   2.000000E-002 |       eV/A | Yes | <-- BFGS
 |  |dR|max  |   0.000000E+000 |   1.000000E-003 |          A | No  | <-- BFGS
 |   Smax    |   5.978661E+000 |   5.000000E-002 |        GPa | No  | <-- BFGS
 +-----------+-----------------+-----------------+------------+-----+ <-- BFGS
  

================================================================================
 Starting BFGS iteration          1 ...
================================================================================
  
 +------------+-------------+-------------+-----------------+ <-- min BFGS
 |    Step    |   lambda    |   F.delta   |    enthalpy     | <-- min BFGS
 +------------+-------------+-------------+-----------------+ <-- min BFGS
 |  previous  |    0.000000 |    0.005286 |    -3449.523397 | <-- min BFGS
 +------------+-------------+-------------+-----------------+ <-- min BFGS
  

--------------------------------------------------------------------------------
 BFGS: starting iteration         1 with trial guess (lambda=  1.000000)
--------------------------------------------------------------------------------
 
                           -------------------------------
                                      Unit Cell
                           -------------------------------
        Real Lattice(A)              Reciprocal Lattice(1/A)
   4.8976220   0.0000000   0.0000000        1.2829053   0.0000000   0.0000000
   0.0000000   4.8976216   0.0000000        0.0000000   1.2829054   0.0000000
  -0.0000002  -0.0000002  19.9999886        0.0000000   0.0000000   0.3141594
 
                       Lattice parameters(A)       Cell Angles
                    a =    4.897622          alpha =   90.000001
                    b =    4.897622          beta  =   90.000001
                    c =   19.999989          gamma =   90.000000
 
                Current cell volume =  479.733714 A**3
 
                           -------------------------------
                                     Cell Contents
                           -------------------------------
 
            xxxxxxxxxxxxxxxxxxxxxxxxxxxxxxxxxxxxxxxxxxxxxxxxxxxxxxxxxxxx
            x  Element    Atom        Fractional coordinates of atoms  x
            x            Number           u          v          w      x
            x----------------------------------------------------------x
            x  Fe           1         0.000000   0.000000   0.000000   x
            x  Fe           2         0.500000   0.000000   0.000000   x
            x  Fe           3         0.000000   0.500000   0.000000   x
            x  Fe           4         0.500000   0.500000   0.000000   x
            xxxxxxxxxxxxxxxxxxxxxxxxxxxxxxxxxxxxxxxxxxxxxxxxxxxxxxxxxxxx
 
 
------------------------------------------------------------------------ <-- SCF
SCF loop      Energy           Fermi           Energy gain       Timer   <-- SCF
                               energy          per atom          (sec)   <-- SCF
------------------------------------------------------------------------ <-- SCF
Initial  -3.44885973E+003  0.00000000E+000                       132.47  <-- SCF
 Warning: There are no empty bands for at least one kpoint and spin; this may
          slow the convergence and/or lead to an inaccurate groundstate.
          If this warning persists, you should consider increasing nextra_bands
          and/or reducing smearing_width in the param file.
          Recommend using nextra_bands of 7 to 15.                              
  
      1  -3.44941422E+003 -5.08048240E+000   1.38623936E-001     134.58  <-- SCF
 Warning: There are no empty bands for at least one kpoint and spin; this may
          slow the convergence and/or lead to an inaccurate groundstate.
          If this warning persists, you should consider increasing nextra_bands
          and/or reducing smearing_width in the param file.
          Recommend using nextra_bands of 7 to 15.                              
  
      2  -3.44942694E+003 -5.08058650E+000   3.17830906E-003     137.03  <-- SCF
 Warning: There are no empty bands for at least one kpoint and spin; this may
          slow the convergence and/or lead to an inaccurate groundstate.
          If this warning persists, you should consider increasing nextra_bands
          and/or reducing smearing_width in the param file.
          Recommend using nextra_bands of 7 to 15.                              
  
      3  -3.44952786E+003 -6.16460729E+000   2.52304954E-002     139.55  <-- SCF
 Warning: There are no empty bands for at least one kpoint and spin; this may
          slow the convergence and/or lead to an inaccurate groundstate.
          If this warning persists, you should consider increasing nextra_bands
          and/or reducing smearing_width in the param file.
          Recommend using nextra_bands of 7 to 15.                              
  
      4  -3.45149793E+003 -5.65054856E+000   4.92517528E-001     142.73  <-- SCF
 Warning: There are no empty bands for at least one kpoint and spin; this may
          slow the convergence and/or lead to an inaccurate groundstate.
          If this warning persists, you should consider increasing nextra_bands
          and/or reducing smearing_width in the param file.
          Recommend using nextra_bands of 7 to 15.                              
  
      5  -3.44911338E+003 -5.54830783E+000  -5.96137622E-001     145.67  <-- SCF
 Warning: There are no empty bands for at least one kpoint and spin; this may
          slow the convergence and/or lead to an inaccurate groundstate.
          If this warning persists, you should consider increasing nextra_bands
          and/or reducing smearing_width in the param file.
          Recommend using nextra_bands of 7 to 15.                              
  
      6  -3.44883193E+003 -5.59510446E+000  -7.03635739E-002     148.47  <-- SCF
 Warning: There are no empty bands for at least one kpoint and spin; this may
          slow the convergence and/or lead to an inaccurate groundstate.
          If this warning persists, you should consider increasing nextra_bands
          and/or reducing smearing_width in the param file.
          Recommend using nextra_bands of 7 to 15.                              
  
      7  -3.44908309E+003 -5.59606056E+000   6.27913618E-002     151.34  <-- SCF
 Warning: There are no empty bands for at least one kpoint and spin; this may
          slow the convergence and/or lead to an inaccurate groundstate.
          If this warning persists, you should consider increasing nextra_bands
          and/or reducing smearing_width in the param file.
          Recommend using nextra_bands of 7 to 15.                              
  
      8  -3.44912563E+003 -5.58584776E+000   1.06346430E-002     153.84  <-- SCF
 Warning: There are no empty bands for at least one kpoint and spin; this may
          slow the convergence and/or lead to an inaccurate groundstate.
          If this warning persists, you should consider increasing nextra_bands
          and/or reducing smearing_width in the param file.
          Recommend using nextra_bands of 7 to 15.                              
  
      9  -3.44914811E+003 -5.58523770E+000   5.61974059E-003     156.67  <-- SCF
 Warning: There are no empty bands for at least one kpoint and spin; this may
          slow the convergence and/or lead to an inaccurate groundstate.
          If this warning persists, you should consider increasing nextra_bands
          and/or reducing smearing_width in the param file.
          Recommend using nextra_bands of 7 to 15.                              
  
     10  -3.44915009E+003 -5.58382096E+000   4.94903131E-004     159.72  <-- SCF
 Warning: There are no empty bands for at least one kpoint and spin; this may
          slow the convergence and/or lead to an inaccurate groundstate.
          If this warning persists, you should consider increasing nextra_bands
          and/or reducing smearing_width in the param file.
          Recommend using nextra_bands of 7 to 15.                              
  
     11  -3.44915121E+003 -5.58275430E+000   2.81458308E-004     162.22  <-- SCF
 Warning: There are no empty bands for at least one kpoint and spin; this may
          slow the convergence and/or lead to an inaccurate groundstate.
          If this warning persists, you should consider increasing nextra_bands
          and/or reducing smearing_width in the param file.
          Recommend using nextra_bands of 7 to 15.                              
  
     12  -3.44915145E+003 -5.58168885E+000   5.82482440E-005     164.09  <-- SCF
 Warning: There are no empty bands for at least one kpoint and spin; this may
          slow the convergence and/or lead to an inaccurate groundstate.
          If this warning persists, you should consider increasing nextra_bands
          and/or reducing smearing_width in the param file.
          Recommend using nextra_bands of 7 to 15.                              
  
     13  -3.44915152E+003 -5.58250458E+000   1.75852496E-005     165.69  <-- SCF
 Warning: There are no empty bands for at least one kpoint and spin; this may
          slow the convergence and/or lead to an inaccurate groundstate.
          If this warning persists, you should consider increasing nextra_bands
          and/or reducing smearing_width in the param file.
          Recommend using nextra_bands of 7 to 15.                              
  
     14  -3.44915161E+003 -5.58354224E+000   2.23027824E-005     167.09  <-- SCF
 Warning: There are no empty bands for at least one kpoint and spin; this may
          slow the convergence and/or lead to an inaccurate groundstate.
          If this warning persists, you should consider increasing nextra_bands
          and/or reducing smearing_width in the param file.
          Recommend using nextra_bands of 7 to 15.                              
  
     15  -3.44915167E+003 -5.58522033E+000   1.61631107E-005     168.50  <-- SCF
 Warning: There are no empty bands for at least one kpoint and spin; this may
          slow the convergence and/or lead to an inaccurate groundstate.
          If this warning persists, you should consider increasing nextra_bands
          and/or reducing smearing_width in the param file.
          Recommend using nextra_bands of 7 to 15.                              
  
     16  -3.44915171E+003 -5.58690413E+000   1.02250026E-005     169.88  <-- SCF
 Warning: There are no empty bands for at least one kpoint and spin; this may
          slow the convergence and/or lead to an inaccurate groundstate.
          If this warning persists, you should consider increasing nextra_bands
          and/or reducing smearing_width in the param file.
          Recommend using nextra_bands of 7 to 15.                              
  
     17  -3.44915173E+003 -5.58812635E+000   4.98759784E-006     171.27  <-- SCF
 Warning: There are no empty bands for at least one kpoint and spin; this may
          slow the convergence and/or lead to an inaccurate groundstate.
          If this warning persists, you should consider increasing nextra_bands
          and/or reducing smearing_width in the param file.
          Recommend using nextra_bands of 7 to 15.                              
  
     18  -3.44915175E+003 -5.58952939E+000   4.37916737E-006     172.64  <-- SCF
 Warning: There are no empty bands for at least one kpoint and spin; this may
          slow the convergence and/or lead to an inaccurate groundstate.
          If this warning persists, you should consider increasing nextra_bands
          and/or reducing smearing_width in the param file.
          Recommend using nextra_bands of 7 to 15.                              
  
     19  -3.44915176E+003 -5.59184033E+000   1.57316493E-006     174.02  <-- SCF
 Warning: There are no empty bands for at least one kpoint and spin; this may
          slow the convergence and/or lead to an inaccurate groundstate.
          If this warning persists, you should consider increasing nextra_bands
          and/or reducing smearing_width in the param file.
          Recommend using nextra_bands of 7 to 15.                              
  
     20  -3.44915175E+003 -5.59376165E+000  -6.88885684E-007     175.39  <-- SCF
 Warning: There are no empty bands for at least one kpoint and spin; this may
          slow the convergence and/or lead to an inaccurate groundstate.
          If this warning persists, you should consider increasing nextra_bands
          and/or reducing smearing_width in the param file.
          Recommend using nextra_bands of 7 to 15.                              
  
     21  -3.44915175E+003 -5.59531065E+000  -3.62770348E-007     176.77  <-- SCF
 Warning: There are no empty bands for at least one kpoint and spin; this may
          slow the convergence and/or lead to an inaccurate groundstate.
          If this warning persists, you should consider increasing nextra_bands
          and/or reducing smearing_width in the param file.
          Recommend using nextra_bands of 7 to 15.                              
  
     22  -3.44915175E+003 -5.59631555E+000  -6.12285642E-007     178.16  <-- SCF
------------------------------------------------------------------------ <-- SCF
 
Final energy, E             =  -3448.951431319     eV
Final free energy (E-TS)    =  -3449.151748799     eV
(energies not corrected for finite basis set)
 
NB est. 0K energy (E-0.5TS)      =  -3449.051590059     eV
 

Dispersion corrected final energy*, Ecor          =  -3449.465975405     eV
Dispersion corrected final free energy* (Ecor-TS) =  -3449.666292885     eV
NB dispersion corrected est. 0K energy* (Ecor-0.5TS) =  -3449.566134145     eV

 * not corrected for finite basis set

 
 *********************************** Forces ***********************************
 *                                                                            *
 *                        Cartesian components (eV/A)                         *
 * -------------------------------------------------------------------------- *
 *                   x                    y                    z              *
 *                                                                            *
 * Fe        1      0.00000              0.00000              0.00000         *
 * Fe        2      0.00000              0.00000             -0.00002         *
 * Fe        3      0.00000              0.00000              0.00002         *
 * Fe        4      0.00000              0.00000              0.00000         *
 *                                                                            *
 ******************************************************************************
 
 ***************** Stress Tensor *****************
 *                                               *
 *          Cartesian components (GPa)           *
 * --------------------------------------------- *
 *             x             y             z     *
 *                                               *
 *  x      5.941809      0.000023      0.000038  *
 *  y      0.000023      5.942003      0.000073  *
 *  z      0.000038      0.000073      0.010907  *
 *                                               *
 *  Pressure:   -3.9649                          *
 *                                               *
 *************************************************
  
 +------------+-------------+-------------+-----------------+ <-- min BFGS
 |    Step    |   lambda    |   F.delta   |    enthalpy     | <-- min BFGS
 +------------+-------------+-------------+-----------------+ <-- min BFGS
 |  previous  |    0.000000 |    0.005286 |    -3449.523397 | <-- min BFGS
 | trial step |    1.000000 |    0.005233 |    -3449.666310 | <-- min BFGS
 +------------+-------------+-------------+-----------------+ <-- min BFGS
  

--------------------------------------------------------------------------------
 BFGS: improving iteration         1 with line minimization (lambda= 13.500156)
--------------------------------------------------------------------------------
 
                           -------------------------------
                                      Unit Cell
                           -------------------------------
        Real Lattice(A)              Reciprocal Lattice(1/A)
   4.6526369   0.0000000  -0.0000005        1.3504568   0.0000000   0.0000001
   0.0000000   4.6526320  -0.0000006        0.0000000   1.3504583   0.0000002
  -0.0000022  -0.0000024  19.9998458        0.0000000   0.0000000   0.3141617
 
                       Lattice parameters(A)       Cell Angles
                    a =    4.652637          alpha =   90.000014
                    b =    4.652632          beta  =   90.000013
                    c =   19.999846          gamma =   90.000001
 
                Current cell volume =  432.936807 A**3
 
                           -------------------------------
                                     Cell Contents
                           -------------------------------
 
            xxxxxxxxxxxxxxxxxxxxxxxxxxxxxxxxxxxxxxxxxxxxxxxxxxxxxxxxxxxx
            x  Element    Atom        Fractional coordinates of atoms  x
            x            Number           u          v          w      x
            x----------------------------------------------------------x
            x  Fe           1         0.000000   0.000000   0.000000   x
            x  Fe           2         0.500000   0.000000   0.000000   x
            x  Fe           3         0.000000   0.500000   0.000000   x
            x  Fe           4         0.500000   0.500000   0.000000   x
            xxxxxxxxxxxxxxxxxxxxxxxxxxxxxxxxxxxxxxxxxxxxxxxxxxxxxxxxxxxx
 
 
------------------------------------------------------------------------ <-- SCF
SCF loop      Energy           Fermi           Energy gain       Timer   <-- SCF
                               energy          per atom          (sec)   <-- SCF
------------------------------------------------------------------------ <-- SCF
Initial  -3.43640985E+003  0.00000000E+000                       183.09  <-- SCF
 Warning: There are no empty bands for at least one kpoint and spin; this may
          slow the convergence and/or lead to an inaccurate groundstate.
          If this warning persists, you should consider increasing nextra_bands
          and/or reducing smearing_width in the param file.
          Recommend using nextra_bands of 7 to 15.                              
  
      1  -3.48843049E+003  1.90416492E-001   1.30051577E+001     184.89  <-- SCF
      2  -3.49028936E+003 -3.90939981E-002   4.64719159E-001     186.70  <-- SCF
      3  -3.48778444E+003 -1.26382502E+001  -6.26231224E-001     188.84  <-- SCF
 Warning: There are no empty bands for at least one kpoint and spin; this may
          slow the convergence and/or lead to an inaccurate groundstate.
          If this warning persists, you should consider increasing nextra_bands
          and/or reducing smearing_width in the param file.
          Recommend using nextra_bands of 7 to 15.                              
  
      4  -3.45043825E+003 -6.81631728E+000  -9.33654554E+000     190.73  <-- SCF
 Warning: There are no empty bands for at least one kpoint and spin; this may
          slow the convergence and/or lead to an inaccurate groundstate.
          If this warning persists, you should consider increasing nextra_bands
          and/or reducing smearing_width in the param file.
          Recommend using nextra_bands of 7 to 15.                              
  
      5  -3.45066934E+003 -6.81498818E+000   5.77705945E-002     192.56  <-- SCF
 Warning: There are no empty bands for at least one kpoint and spin; this may
          slow the convergence and/or lead to an inaccurate groundstate.
          If this warning persists, you should consider increasing nextra_bands
          and/or reducing smearing_width in the param file.
          Recommend using nextra_bands of 7 to 15.                              
  
      6  -3.45149488E+003 -6.66062747E+000   2.06385047E-001     194.91  <-- SCF
 Warning: There are no empty bands for at least one kpoint and spin; this may
          slow the convergence and/or lead to an inaccurate groundstate.
          If this warning persists, you should consider increasing nextra_bands
          and/or reducing smearing_width in the param file.
          Recommend using nextra_bands of 7 to 15.                              
  
      7  -3.45096788E+003 -6.15159794E+000  -1.31750333E-001     197.30  <-- SCF
 Warning: There are no empty bands for at least one kpoint and spin; this may
          slow the convergence and/or lead to an inaccurate groundstate.
          If this warning persists, you should consider increasing nextra_bands
          and/or reducing smearing_width in the param file.
          Recommend using nextra_bands of 7 to 15.                              
  
      8  -3.45060105E+003 -6.10567210E+000  -9.17063606E-002     199.66  <-- SCF
 Warning: There are no empty bands for at least one kpoint and spin; this may
          slow the convergence and/or lead to an inaccurate groundstate.
          If this warning persists, you should consider increasing nextra_bands
          and/or reducing smearing_width in the param file.
          Recommend using nextra_bands of 7 to 15.                              
  
      9  -3.45072231E+003 -6.07198211E+000   3.03154270E-002     201.39  <-- SCF
 Warning: There are no empty bands for at least one kpoint and spin; this may
          slow the convergence and/or lead to an inaccurate groundstate.
          If this warning persists, you should consider increasing nextra_bands
          and/or reducing smearing_width in the param file.
          Recommend using nextra_bands of 7 to 15.                              
  
     10  -3.45085733E+003 -6.03408827E+000   3.37549150E-002     204.03  <-- SCF
 Warning: There are no empty bands for at least one kpoint and spin; this may
          slow the convergence and/or lead to an inaccurate groundstate.
          If this warning persists, you should consider increasing nextra_bands
          and/or reducing smearing_width in the param file.
          Recommend using nextra_bands of 7 to 15.                              
  
     11  -3.45061514E+003 -5.84843314E+000  -6.05468699E-002     206.66  <-- SCF
 Warning: There are no empty bands for at least one kpoint and spin; this may
          slow the convergence and/or lead to an inaccurate groundstate.
          If this warning persists, you should consider increasing nextra_bands
          and/or reducing smearing_width in the param file.
          Recommend using nextra_bands of 7 to 15.                              
  
     12  -3.45065385E+003 -5.71946196E+000   9.67631422E-003     208.75  <-- SCF
 Warning: There are no empty bands for at least one kpoint and spin; this may
          slow the convergence and/or lead to an inaccurate groundstate.
          If this warning persists, you should consider increasing nextra_bands
          and/or reducing smearing_width in the param file.
          Recommend using nextra_bands of 7 to 15.                              
  
     13  -3.45065338E+003 -5.69260894E+000  -1.16520698E-004     211.23  <-- SCF
 Warning: There are no empty bands for at least one kpoint and spin; this may
          slow the convergence and/or lead to an inaccurate groundstate.
          If this warning persists, you should consider increasing nextra_bands
          and/or reducing smearing_width in the param file.
          Recommend using nextra_bands of 7 to 15.                              
  
     14  -3.45065928E+003 -5.63425176E+000   1.47531054E-003     213.45  <-- SCF
 Warning: There are no empty bands for at least one kpoint and spin; this may
          slow the convergence and/or lead to an inaccurate groundstate.
          If this warning persists, you should consider increasing nextra_bands
          and/or reducing smearing_width in the param file.
          Recommend using nextra_bands of 7 to 15.                              
  
     15  -3.45066476E+003 -5.61859242E+000   1.36801986E-003     215.92  <-- SCF
 Warning: There are no empty bands for at least one kpoint and spin; this may
          slow the convergence and/or lead to an inaccurate groundstate.
          If this warning persists, you should consider increasing nextra_bands
          and/or reducing smearing_width in the param file.
          Recommend using nextra_bands of 7 to 15.                              
  
     16  -3.45066447E+003 -5.58070005E+000  -7.16690550E-005     218.09  <-- SCF
 Warning: There are no empty bands for at least one kpoint and spin; this may
          slow the convergence and/or lead to an inaccurate groundstate.
          If this warning persists, you should consider increasing nextra_bands
          and/or reducing smearing_width in the param file.
          Recommend using nextra_bands of 7 to 15.                              
  
     17  -3.45066450E+003 -5.55977513E+000   8.17893083E-006     220.31  <-- SCF
 Warning: There are no empty bands for at least one kpoint and spin; this may
          slow the convergence and/or lead to an inaccurate groundstate.
          If this warning persists, you should consider increasing nextra_bands
          and/or reducing smearing_width in the param file.
          Recommend using nextra_bands of 7 to 15.                              
  
     18  -3.45066408E+003 -5.55955238E+000  -1.06537872E-004     221.97  <-- SCF
 Warning: There are no empty bands for at least one kpoint and spin; this may
          slow the convergence and/or lead to an inaccurate groundstate.
          If this warning persists, you should consider increasing nextra_bands
          and/or reducing smearing_width in the param file.
          Recommend using nextra_bands of 7 to 15.                              
  
     19  -3.45066406E+003 -5.56626667E+000  -4.42370733E-006     223.28  <-- SCF
 Warning: There are no empty bands for at least one kpoint and spin; this may
          slow the convergence and/or lead to an inaccurate groundstate.
          If this warning persists, you should consider increasing nextra_bands
          and/or reducing smearing_width in the param file.
          Recommend using nextra_bands of 7 to 15.                              
  
     20  -3.45066375E+003 -5.58263642E+000  -7.70557449E-005     224.78  <-- SCF
 Warning: There are no empty bands for at least one kpoint and spin; this may
          slow the convergence and/or lead to an inaccurate groundstate.
          If this warning persists, you should consider increasing nextra_bands
          and/or reducing smearing_width in the param file.
          Recommend using nextra_bands of 7 to 15.                              
  
     21  -3.45066363E+003 -5.59960655E+000  -3.10116703E-005     226.34  <-- SCF
 Warning: There are no empty bands for at least one kpoint and spin; this may
          slow the convergence and/or lead to an inaccurate groundstate.
          If this warning persists, you should consider increasing nextra_bands
          and/or reducing smearing_width in the param file.
          Recommend using nextra_bands of 7 to 15.                              
  
     22  -3.45066279E+003 -5.63967453E+000  -2.09242341E-004     228.30  <-- SCF
 Warning: There are no empty bands for at least one kpoint and spin; this may
          slow the convergence and/or lead to an inaccurate groundstate.
          If this warning persists, you should consider increasing nextra_bands
          and/or reducing smearing_width in the param file.
          Recommend using nextra_bands of 7 to 15.                              
  
     23  -3.45066275E+003 -5.65618872E+000  -8.92671975E-006     229.77  <-- SCF
 Warning: There are no empty bands for at least one kpoint and spin; this may
          slow the convergence and/or lead to an inaccurate groundstate.
          If this warning persists, you should consider increasing nextra_bands
          and/or reducing smearing_width in the param file.
          Recommend using nextra_bands of 7 to 15.                              
  
     24  -3.45066271E+003 -5.69357282E+000  -1.22844262E-005     231.45  <-- SCF
 Warning: There are no empty bands for at least one kpoint and spin; this may
          slow the convergence and/or lead to an inaccurate groundstate.
          If this warning persists, you should consider increasing nextra_bands
          and/or reducing smearing_width in the param file.
          Recommend using nextra_bands of 7 to 15.                              
  
     25  -3.45066302E+003 -5.69417114E+000   7.97745268E-005     232.89  <-- SCF
 Warning: There are no empty bands for at least one kpoint and spin; this may
          slow the convergence and/or lead to an inaccurate groundstate.
          If this warning persists, you should consider increasing nextra_bands
          and/or reducing smearing_width in the param file.
          Recommend using nextra_bands of 7 to 15.                              
  
     26  -3.45066334E+003 -5.70192077E+000   8.00506451E-005     234.14  <-- SCF
 Warning: There are no empty bands for at least one kpoint and spin; this may
          slow the convergence and/or lead to an inaccurate groundstate.
          If this warning persists, you should consider increasing nextra_bands
          and/or reducing smearing_width in the param file.
          Recommend using nextra_bands of 7 to 15.                              
  
     27  -3.45066347E+003 -5.70594832E+000   3.23992967E-005     235.33  <-- SCF
 Warning: There are no empty bands for at least one kpoint and spin; this may
          slow the convergence and/or lead to an inaccurate groundstate.
          If this warning persists, you should consider increasing nextra_bands
          and/or reducing smearing_width in the param file.
          Recommend using nextra_bands of 7 to 15.                              
  
     28  -3.45066352E+003 -5.70728137E+000   1.07600241E-005     236.50  <-- SCF
 Warning: There are no empty bands for at least one kpoint and spin; this may
          slow the convergence and/or lead to an inaccurate groundstate.
          If this warning persists, you should consider increasing nextra_bands
          and/or reducing smearing_width in the param file.
          Recommend using nextra_bands of 7 to 15.                              
  
     29  -3.45066354E+003 -5.70719207E+000   5.60285157E-006     237.67  <-- SCF
 Warning: There are no empty bands for at least one kpoint and spin; this may
          slow the convergence and/or lead to an inaccurate groundstate.
          If this warning persists, you should consider increasing nextra_bands
          and/or reducing smearing_width in the param file.
          Recommend using nextra_bands of 7 to 15.                              
  
     30  -3.45066354E+003 -5.70639696E+000   1.26119816E-006     238.86  <-- SCF
 Warning: There are no empty bands for at least one kpoint and spin; this may
          slow the convergence and/or lead to an inaccurate groundstate.
          If this warning persists, you should consider increasing nextra_bands
          and/or reducing smearing_width in the param file.
          Recommend using nextra_bands of 7 to 15.                              
  
     31  -3.45066356E+003 -5.70570579E+000   4.85958604E-006     240.03  <-- SCF
 Warning: There are no empty bands for at least one kpoint and spin; this may
          slow the convergence and/or lead to an inaccurate groundstate.
          If this warning persists, you should consider increasing nextra_bands
          and/or reducing smearing_width in the param file.
          Recommend using nextra_bands of 7 to 15.                              
  
     32  -3.45066359E+003 -5.70530668E+000   5.34175122E-006     241.22  <-- SCF
 Warning: There are no empty bands for at least one kpoint and spin; this may
          slow the convergence and/or lead to an inaccurate groundstate.
          If this warning persists, you should consider increasing nextra_bands
          and/or reducing smearing_width in the param file.
          Recommend using nextra_bands of 7 to 15.                              
  
     33  -3.45066359E+003 -5.70521483E+000   1.89782522E-006     242.41  <-- SCF
 Warning: There are no empty bands for at least one kpoint and spin; this may
          slow the convergence and/or lead to an inaccurate groundstate.
          If this warning persists, you should consider increasing nextra_bands
          and/or reducing smearing_width in the param file.
[...]

 * not corrected for finite basis set

 
 *********************************** Forces ***********************************
 *                                                                            *
 *                        Cartesian components (eV/A)                         *
 * -------------------------------------------------------------------------- *
 *                   x                    y                    z              *
 *                                                                            *
 * Fe        1      0.00000              0.00000             -0.00011         *
 * Fe        2      0.00000              0.00000             -0.00042         *
 * Fe        3      0.00000              0.00000              0.00040         *
 * Fe        4      0.00000              0.00000              0.00013         *
 *                                                                            *
 ******************************************************************************
 
 ***************** Stress Tensor *****************
 *                                               *
 *          Cartesian components (GPa)           *
 * --------------------------------------------- *
 *             x             y             z     *
 *                                               *
 *  x      0.031189      0.000000      0.000000  *
 *  y      0.000000      0.031363      0.000001  *
 *  z      0.000000      0.000001      0.001757  *
 *                                               *
 *  Pressure:   -0.0214                          *
 *                                               *
 *************************************************
  
 +------------+-------------+-------------+-----------------+ <-- min BFGS
 |    Step    |   lambda    |   F.delta   |    enthalpy     | <-- min BFGS
 +------------+-------------+-------------+-----------------+ <-- min BFGS
 |  previous  |    0.000000 |    0.000598 |    -3452.238789 | <-- min BFGS
 | trial step |    1.000000 |   -0.000034 |    -3452.246440 | <-- min BFGS
 +------------+-------------+-------------+-----------------+ <-- min BFGS
  
 BFGS: finished iteration     4 with enthalpy= -3.45224644E+003 eV
  
 +-----------+-----------------+-----------------+------------+-----+ <-- BFGS
 | Parameter |      value      |    tolerance    |    units   | OK? | <-- BFGS
 +-----------+-----------------+-----------------+------------+-----+ <-- BFGS
 |  dE/ion   |   1.912716E-003 |   1.000000E-005 |         eV | No  | <-- BFGS
 |  |F|max   |   4.220974E-004 |   2.000000E-002 |       eV/A | Yes | <-- BFGS
 |  |dR|max  |   1.855900E-007 |   1.000000E-003 |          A | Yes | <-- BFGS
 |   Smax    |   3.136272E-002 |   5.000000E-002 |        GPa | Yes | <-- BFGS
 +-----------+-----------------+-----------------+------------+-----+ <-- BFGS
  

================================================================================
 Starting BFGS iteration          5 ...
================================================================================

Writing analysis data to FCC-Fe__1_0_0_.castep_bin

Writing model to FCC-Fe__1_0_0_.check
  
 +------------+-------------+-------------+-----------------+ <-- min BFGS
 |    Step    |   lambda    |   F.delta   |    enthalpy     | <-- min BFGS
 +------------+-------------+-------------+-----------------+ <-- min BFGS
 |  previous  |    0.000000 |  1.779E-006 |    -3452.246440 | <-- min BFGS
 +------------+-------------+-------------+-----------------+ <-- min BFGS
  

--------------------------------------------------------------------------------
 BFGS: starting iteration         5 with trial guess (lambda=  1.000000)
--------------------------------------------------------------------------------
 
                           -------------------------------
                                      Unit Cell
                           -------------------------------
        Real Lattice(A)              Reciprocal Lattice(1/A)
   4.3262794  -0.0000001  -0.0000011        1.4523300   0.0000000   0.0000003
  -0.0000001   4.3262674  -0.0000013        0.0000000   1.4523340   0.0000004
  -0.0000046  -0.0000053  19.9995651        0.0000001   0.0000001   0.3141661
 
                       Lattice parameters(A)       Cell Angles
                    a =    4.326279          alpha =   90.000032
                    b =    4.326267          beta  =   90.000028
                    c =   19.999565          gamma =   90.000001
 
                Current cell volume =  374.324695 A**3
 
                           -------------------------------
                                     Cell Contents
                           -------------------------------
 
            xxxxxxxxxxxxxxxxxxxxxxxxxxxxxxxxxxxxxxxxxxxxxxxxxxxxxxxxxxxx
            x  Element    Atom        Fractional coordinates of atoms  x
            x            Number           u          v          w      x
            x----------------------------------------------------------x
            x  Fe           1         0.000000   0.000000   0.000000   x
            x  Fe           2         0.500000   0.000000   0.000000   x
            x  Fe           3         0.000000   0.500000   0.000000   x
            x  Fe           4         0.500000   0.500000   0.000000   x
            xxxxxxxxxxxxxxxxxxxxxxxxxxxxxxxxxxxxxxxxxxxxxxxxxxxxxxxxxxxx
 
 
------------------------------------------------------------------------ <-- SCF
SCF loop      Energy           Fermi           Energy gain       Timer   <-- SCF
                               energy          per atom          (sec)   <-- SCF
------------------------------------------------------------------------ <-- SCF
Initial  -3.45149126E+003  0.00000000E+000                       400.97  <-- SCF
 Warning: There are no empty bands for at least one kpoint and spin; this may
          slow the convergence and/or lead to an inaccurate groundstate.
          If this warning persists, you should consider increasing nextra_bands
          and/or reducing smearing_width in the param file.
          Recommend using nextra_bands of 7 to 15.                              
  
      1  -3.45164700E+003 -5.78178679E+000   3.89347489E-002     402.53  <-- SCF
 Warning: There are no empty bands for at least one kpoint and spin; this may
          slow the convergence and/or lead to an inaccurate groundstate.
          If this warning persists, you should consider increasing nextra_bands
          and/or reducing smearing_width in the param file.
          Recommend using nextra_bands of 7 to 15.                              
  
      2  -3.45164702E+003 -5.78178730E+000   4.49966971E-006     403.91  <-- SCF
 Warning: There are no empty bands for at least one kpoint and spin; this may
          slow the convergence and/or lead to an inaccurate groundstate.
          If this warning persists, you should consider increasing nextra_bands
          and/or reducing smearing_width in the param file.
          Recommend using nextra_bands of 7 to 15.                              
  
      3  -3.45164628E+003 -5.85687312E+000  -1.83638941E-004     405.61  <-- SCF
 Warning: There are no empty bands for at least one kpoint and spin; this may
          slow the convergence and/or lead to an inaccurate groundstate.
          If this warning persists, you should consider increasing nextra_bands
          and/or reducing smearing_width in the param file.
          Recommend using nextra_bands of 7 to 15.                              
  
      4  -3.45164512E+003 -5.82310188E+000  -2.90532909E-004     407.33  <-- SCF
 Warning: There are no empty bands for at least one kpoint and spin; this may
          slow the convergence and/or lead to an inaccurate groundstate.
          If this warning persists, you should consider increasing nextra_bands
          and/or reducing smearing_width in the param file.
          Recommend using nextra_bands of 7 to 15.                              
  
      5  -3.45164457E+003 -5.82274430E+000  -1.38381402E-004     409.11  <-- SCF
 Warning: There are no empty bands for at least one kpoint and spin; this may
          slow the convergence and/or lead to an inaccurate groundstate.
          If this warning persists, you should consider increasing nextra_bands
          and/or reducing smearing_width in the param file.
          Recommend using nextra_bands of 7 to 15.                              
  
      6  -3.45164542E+003 -5.82235730E+000   2.14024914E-004     410.84  <-- SCF
 Warning: There are no empty bands for at least one kpoint and spin; this may
          slow the convergence and/or lead to an inaccurate groundstate.
          If this warning persists, you should consider increasing nextra_bands
          and/or reducing smearing_width in the param file.
          Recommend using nextra_bands of 7 to 15.                              
  
      7  -3.45164538E+003 -5.82208777E+000  -1.14148772E-005     412.23  <-- SCF
 Warning: There are no empty bands for at least one kpoint and spin; this may
          slow the convergence and/or lead to an inaccurate groundstate.
          If this warning persists, you should consider increasing nextra_bands
          and/or reducing smearing_width in the param file.
          Recommend using nextra_bands of 7 to 15.                              
  
      8  -3.45164552E+003 -5.82201252E+000   3.60334359E-005     413.23  <-- SCF
 Warning: There are no empty bands for at least one kpoint and spin; this may
          slow the convergence and/or lead to an inaccurate groundstate.
          If this warning persists, you should consider increasing nextra_bands
          and/or reducing smearing_width in the param file.
          Recommend using nextra_bands of 7 to 15.                              
  
      9  -3.45164548E+003 -5.82189779E+000  -1.13914649E-005     414.23  <-- SCF
 Warning: There are no empty bands for at least one kpoint and spin; this may
          slow the convergence and/or lead to an inaccurate groundstate.
          If this warning persists, you should consider increasing nextra_bands
          and/or reducing smearing_width in the param file.
          Recommend using nextra_bands of 7 to 15.                              
  
     10  -3.45164553E+003 -5.82193976E+000   1.39387595E-005     415.20  <-- SCF
 Warning: There are no empty bands for at least one kpoint and spin; this may
          slow the convergence and/or lead to an inaccurate groundstate.
          If this warning persists, you should consider increasing nextra_bands
          and/or reducing smearing_width in the param file.
          Recommend using nextra_bands of 7 to 15.                              
  
     11  -3.45164553E+003 -5.82200499E+000   2.60696059E-007     416.19  <-- SCF
 Warning: There are no empty bands for at least one kpoint and spin; this may
          slow the convergence and/or lead to an inaccurate groundstate.
          If this warning persists, you should consider increasing nextra_bands
          and/or reducing smearing_width in the param file.
          Recommend using nextra_bands of 7 to 15.                              
  
     12  -3.45164553E+003 -5.82216062E+000   1.02579122E-007     417.16  <-- SCF
------------------------------------------------------------------------ <-- SCF
 
Final energy, E             =  -3451.492133950     eV
Final free energy (E-TS)    =  -3451.645533514     eV
(energies not corrected for finite basis set)
 
NB est. 0K energy (E-0.5TS)      =  -3451.568833732     eV
 

Dispersion corrected final energy*, Ecor          =  -3452.093066996     eV
Dispersion corrected final free energy* (Ecor-TS) =  -3452.246466560     eV
NB dispersion corrected est. 0K energy* (Ecor-0.5TS) =  -3452.169766778     eV

 * not corrected for finite basis set

 
 *********************************** Forces ***********************************
 *                                                                            *
 *                        Cartesian components (eV/A)                         *
 * -------------------------------------------------------------------------- *
 *                   x                    y                    z              *
 *                                                                            *
 * Fe        1      0.00000              0.00000             -0.00012         *
 * Fe        2      0.00000              0.00000             -0.00047         *
 * Fe        3      0.00000              0.00000              0.00045         *
 * Fe        4      0.00000              0.00000              0.00014         *
 *                                                                            *
 ******************************************************************************
 
 ***************** Stress Tensor *****************
 *                                               *
 *          Cartesian components (GPa)           *
 * --------------------------------------------- *
 *             x             y             z     *
 *                                               *
 *  x      0.003570      0.000000      0.000000  *
 *  y      0.000000      0.003759      0.000008  *
 *  z      0.000000      0.000008      0.005580  *
 *                                               *
 *  Pressure:   -0.0043                          *
 *                                               *
 *************************************************
  
 +------------+-------------+-------------+-----------------+ <-- min BFGS
 |    Step    |   lambda    |   F.delta   |    enthalpy     | <-- min BFGS
 +------------+-------------+-------------+-----------------+ <-- min BFGS
 |  previous  |    0.000000 |  1.779E-006 |    -3452.246440 | <-- min BFGS
 | trial step |    1.000000 |  2.089E-007 |    -3452.246448 | <-- min BFGS
 +------------+-------------+-------------+-----------------+ <-- min BFGS
  
 BFGS: finished iteration     5 with enthalpy= -3.45224645E+003 eV
  
 +-----------+-----------------+-----------------+------------+-----+ <-- BFGS
 | Parameter |      value      |    tolerance    |    units   | OK? | <-- BFGS
 +-----------+-----------------+-----------------+------------+-----+ <-- BFGS
 |  dE/ion   |   2.059294E-006 |   1.000000E-005 |         eV | Yes | <-- BFGS
 |  |F|max   |   4.709697E-004 |   2.000000E-002 |       eV/A | Yes | <-- BFGS
 |  |dR|max  |   7.276970E-007 |   1.000000E-003 |          A | Yes | <-- BFGS
 |   Smax    |   5.580091E-003 |   5.000000E-002 |        GPa | Yes | <-- BFGS
 +-----------+-----------------+-----------------+------------+-----+ <-- BFGS
  
 BFGS : Geometry optimization completed successfully.

================================================================================
 BFGS : Final Configuration:
================================================================================
 
                           -------------------------------
                                      Unit Cell
                           -------------------------------
        Real Lattice(A)              Reciprocal Lattice(1/A)
   4.3262794  -0.0000001  -0.0000011        1.4523300   0.0000000   0.0000003
  -0.0000001   4.3262674  -0.0000013        0.0000000   1.4523340   0.0000004
  -0.0000046  -0.0000053  19.9995651        0.0000001   0.0000001   0.3141661
 
                       Lattice parameters(A)       Cell Angles
                    a =    4.326279          alpha =   90.000032
                    b =    4.326267          beta  =   90.000028
                    c =   19.999565          gamma =   90.000001
 
                Current cell volume =  374.324695 A**3
 
                           -------------------------------
                                     Cell Contents
                           -------------------------------
 
            xxxxxxxxxxxxxxxxxxxxxxxxxxxxxxxxxxxxxxxxxxxxxxxxxxxxxxxxxxxx
            x  Element    Atom        Fractional coordinates of atoms  x
            x            Number           u          v          w      x
            x----------------------------------------------------------x
            x  Fe           1         0.000000   0.000000   0.000000   x
            x  Fe           2         0.500000   0.000000   0.000000   x
            x  Fe           3         0.000000   0.500000   0.000000   x
            x  Fe           4         0.500000   0.500000   0.000000   x
            xxxxxxxxxxxxxxxxxxxxxxxxxxxxxxxxxxxxxxxxxxxxxxxxxxxxxxxxxxxx
 
 
 BFGS : Final Enthalpy     = -3.45224645E+003 eV
 BFGS : Final <frequency>  unchanged from initial value
 BFGS : Final bulk modulus =      56.82145 GPa
 
 *********************************** Forces ***********************************
 *                                                                            *
 *                        Cartesian components (eV/A)                         *
 * -------------------------------------------------------------------------- *
 *                   x                    y                    z              *
 *                                                                            *
 * Fe        1      0.00000              0.00000             -0.00012         *
 * Fe        2      0.00000              0.00000             -0.00047         *
 * Fe        3      0.00000              0.00000              0.00045         *
 * Fe        4      0.00000              0.00000              0.00014         *
 *                                                                            *
 ******************************************************************************
 
 ***************** Stress Tensor *****************
 *                                               *
 *          Cartesian components (GPa)           *
 * --------------------------------------------- *
 *             x             y             z     *
 *                                               *
 *  x      0.003570      0.000000      0.000000  *
 *  y      0.000000      0.003759      0.000008  *
 *  z      0.000000      0.000008      0.005580  *
 *                                               *
 *  Pressure:   -0.0043                          *
 *                                               *
 *************************************************
 
 Pseudo atomic calculation performed for Fe 3d6 4s2
 
 Converged in 35 iterations to a total energy of -855.8900 eV
 
Charge spilling parameter for spin component 1 = 0.51%
 
     Atomic Populations (Mulliken)
     -----------------------------
Species   Ion     s      p      d      f     Total  Charge (e)
==============================================================
  Fe       1     0.87   0.30   6.84   0.00   8.00     0.00
  Fe       2     0.87   0.30   6.84   0.00   8.00     0.00
  Fe       3     0.87   0.30   6.84   0.00   8.00     0.00
  Fe       4     0.87   0.30   6.84   0.00   8.00     0.00
==============================================================
 
            Bond              Population      Length (A)
============================================================
         Fe 1 -- Fe 3              0.75        2.16313
         Fe 2 -- Fe 4              0.75        2.16313
         Fe 3 -- Fe 4              0.76        2.16314
         Fe 1 -- Fe 2              0.76        2.16314
============================================================
 
 
     Hirshfeld Analysis
     ------------------
Species   Ion     Hirshfeld Charge (e)
======================================
  Fe       1                 0.00
  Fe       2                 0.00
  Fe       3                 0.00
  Fe       4                 0.00
======================================
 

Writing analysis data to FCC-Fe__1_0_0_.castep_bin

Writing model to FCC-Fe__1_0_0_.check
 
 A BibTeX formatted list of references used in this run has been written to 
 FCC-Fe__1_0_0_.bib
 
Initialisation time =      0.22 s
Calculation time    =    420.23 s
Finalisation time   =      0.27 s
Total time          =    420.72 s
