test                                                                    
SP        RM062X                                                      def2QZVP            
Number of atoms                            I                3
Info1-9                                    I   N=           9
          11          11           0           0           0         110
           1          18        -502
Full Title                                 C   N=           1
test        
Route                                      C   N=           3
#p m062x/def2qzvp pop=(mk,npa)      
Charge                                     I                0
Multiplicity                               I                1
Number of electrons                        I               10
Number of alpha electrons                  I                5
Number of beta electrons                   I                5
Number of basis functions                  I              117
Number of independent functions            I              117
Number of point charges in /Mol/           I                0
Number of translation vectors              I                0
Atomic numbers                             I   N=           3
           8           1           1
Nuclear charges                            R   N=           3
  8.00000000E+00  1.00000000E+00  1.00000000E+00
Current cartesian coordinates              R   N=           9
  4.85722573E-17 -7.19910243E-17  2.09478505E-01  0.00000000E+00 -1.48123672E+00
 -8.37914025E-01 -2.49800181E-16  1.48123672E+00 -8.37914025E-01
Number of symbols in /Mol/                 I                0
Force Field                                I                0
Atom Types                                 C   N=           3
                                    
Int Atom Types                             I   N=           3
           0           0           0
MM charges                                 R   N=           3
  0.00000000E+00  0.00000000E+00  0.00000000E+00
Integer atomic weights                     I   N=           3
          16           1           1
Real atomic weights                        R   N=           3
  1.59949146E+01  1.00782504E+00  1.00782504E+00
Atom fragment info                         I   N=           3
           0           0           0
Atom residue num                           I   N=           3
           0           0           0
Nuclear spins                              I   N=           3
           0           1           1
Nuclear ZEff                               R   N=           3
 -5.60000000E+00 -1.00000000E+00 -1.00000000E+00
Nuclear ZNuc                               R   N=           3
  8.00000000E+00  1.00000000E+00  1.00000000E+00
Nuclear QMom                               R   N=           3
  0.00000000E+00  0.00000000E+00  0.00000000E+00
Nuclear GFac                               R   N=           3
  0.00000000E+00  2.79284600E+00  2.79284600E+00
MicOpt                                     I   N=           3
          -1          -1          -1
Number of residues                         I                0
Number of secondary structures             I                0
SymInf integers                            I   N=          26
           2           4           1           1           1          -1
          -1           1          -1           1           1           1
          -1           1           0           0           0           0
           0           0           0           0           0           0
           0           0
RotTr to input orientation                 R   N=          12
 -7.38976644E-02 -2.35764251E-01 -9.68996570E-01 -4.21198873E-01  8.88115337E-01
 -1.83963741E-01  9.03952789E-01  3.94545773E-01 -1.64933286E-01 -2.09060964E-01
  2.28737951E+00  6.29601206E-02
Number of contracted shells                I               37
Number of primitive shells                 I               55
Pure/Cartesian d shells                    I                0
Pure/Cartesian f shells                    I                0
Highest angular momentum                   I                4
Largest degree of contraction              I                8
Shell types                                I   N=          37
           0           0           0           0           0           0
           0           1           1           1           1          -2
          -2          -2          -3          -3          -4           0
           0           0           0           1           1           1
          -2          -2          -3           0           0           0
           0           1           1           1          -2          -2
          -3
Number of primitives per shell             I   N=          37
           8           2           1           1           1           1
           1           5           1           1           1           1
           1           1           1           1           1           4
           1           1           1           1           1           1
           1           1           1           4           1           1
           1           1           1           1           1           1
           1
Shell to atom map                          I   N=          37
           1           1           1           1           1           1
           1           1           1           1           1           1
           1           1           1           1           1           2
           2           2           2           2           2           2
           2           2           2           3           3           3
           3           3           3           3           3           3
           3
Primitive exponents                        R   N=          55
  1.16506469E+05  1.75043497E+04  3.99345132E+03  1.13300632E+03  3.69995696E+02
  1.33620743E+02  5.20356436E+01  2.14619393E+01  8.98350513E+01  2.64280108E+01
  9.28228246E+00  4.09477285E+00  1.32553491E+00  5.18772308E-01  1.97726765E-01
  1.91152558E+02  4.52333567E+01  1.43534659E+01  5.24223718E+00  2.07924186E+00
  8.42823714E-01  3.36176949E-01  1.28639980E-01  3.77500000E+00  1.30000000E+00
  4.44000000E-01  2.66600000E+00  8.59000000E-01  1.84600000E+00  1.90691690E+02
  2.86055320E+01  6.50959430E+00  1.84124550E+00  5.98537250E-01  2.13976240E-01
  8.03162860E-02  2.29200000E+00  8.38000000E-01  2.92000000E-01  2.06200000E+00
  6.62000000E-01  1.39700000E+00  1.90691690E+02  2.86055320E+01  6.50959430E+00
  1.84124550E+00  5.98537250E-01  2.13976240E-01  8.03162860E-02  2.29200000E+00
  8.38000000E-01  2.92000000E-01  2.06200000E+00  6.62000000E-01  1.39700000E+00
Contraction coefficients                   R   N=          55
  7.19875758E-05  5.57148772E-04  2.91300317E-03  1.21720511E-02  4.30037618E-02
  1.29647624E-01  3.19696086E-01  5.89314588E-01  9.48480528E-02  9.25363788E-01
  1.00000000E+00  1.00000000E+00  1.00000000E+00  1.00000000E+00  1.00000000E+00
  2.53595741E-03  2.02338243E-02  9.45180200E-02  3.09154328E-01  6.84689495E-01
  1.00000000E+00  1.00000000E+00  1.00000000E+00  1.00000000E+00  1.00000000E+00
  1.00000000E+00  1.00000000E+00  1.00000000E+00  1.00000000E+00  5.34263696E-03
  4.12523382E-02  2.10993526E-01  8.12128546E-01  1.00000000E+00  1.00000000E+00
  1.00000000E+00  1.00000000E+00  1.00000000E+00  1.00000000E+00  1.00000000E+00
  1.00000000E+00  1.00000000E+00  5.34263696E-03  4.12523382E-02  2.10993526E-01
  8.12128546E-01  1.00000000E+00  1.00000000E+00  1.00000000E+00  1.00000000E+00
  1.00000000E+00  1.00000000E+00  1.00000000E+00  1.00000000E+00  1.00000000E+00
Coordinates of each shell                  R   N=         111
  5.81419650E-18  2.94343698E-17  2.09478505E-01  5.81419650E-18  2.94343698E-17
  2.09478505E-01  5.81419650E-18  2.94343698E-17  2.09478505E-01  5.81419650E-18
  2.94343698E-17  2.09478505E-01  5.81419650E-18  2.94343698E-17  2.09478505E-01
  5.81419650E-18  2.94343698E-17  2.09478505E-01  5.81419650E-18  2.94343698E-17
  2.09478505E-01  5.81419650E-18  2.94343698E-17  2.09478505E-01  5.81419650E-18
  2.94343698E-17  2.09478505E-01  5.81419650E-18  2.94343698E-17  2.09478505E-01
  5.81419650E-18  2.94343698E-17  2.09478505E-01  5.81419650E-18  2.94343698E-17
  2.09478505E-01  5.81419650E-18  2.94343698E-17  2.09478505E-01  5.81419650E-18
  2.94343698E-17  2.09478505E-01  5.81419650E-18  2.94343698E-17  2.09478505E-01
  5.81419650E-18  2.94343698E-17  2.09478505E-01  5.81419650E-18  2.94343698E-17
  2.09478505E-01  7.95246581E-17 -1.48123672E+00 -8.37914025E-01  7.95246581E-17
 -1.48123672E+00 -8.37914025E-01  7.95246581E-17 -1.48123672E+00 -8.37914025E-01
  7.95246581E-17 -1.48123672E+00 -8.37914025E-01  7.95246581E-17 -1.48123672E+00
 -8.37914025E-01  7.95246581E-17 -1.48123672E+00 -8.37914025E-01  7.95246581E-17
 -1.48123672E+00 -8.37914025E-01  7.95246581E-17 -1.48123672E+00 -8.37914025E-01
  7.95246581E-17 -1.48123672E+00 -8.37914025E-01  7.95246581E-17 -1.48123672E+00
 -8.37914025E-01 -1.02781444E-16  1.48123672E+00 -8.37914025E-01 -1.02781444E-16
  1.48123672E+00 -8.37914025E-01 -1.02781444E-16  1.48123672E+00 -8.37914025E-01
 -1.02781444E-16  1.48123672E+00 -8.37914025E-01 -1.02781444E-16  1.48123672E+00
 -8.37914025E-01 -1.02781444E-16  1.48123672E+00 -8.37914025E-01 -1.02781444E-16
  1.48123672E+00 -8.37914025E-01 -1.02781444E-16  1.48123672E+00 -8.37914025E-01
 -1.02781444E-16  1.48123672E+00 -8.37914025E-01 -1.02781444E-16  1.48123672E+00
 -8.37914025E-01
Num ILSW                                   I              100
ILSW                                       I   N=         100
           0           0           0           0           2           0
           0           0           0           0        4336          -1
           5           0           0           0           0           0
           0           0           0           0           0           0
           1           0           0           0           0           0
           0           0      100000           0          -1           0
           0           0           0           0           0           0
           0           0           0           1           0           0
           0 -2000000000           1           0           0           0
           0           0           4          52           0           0
           0           0          55           0           0           0
           0           0           0           3           0           1
           0           0           0           0           0           0
           0           0           0           0           0           0
           0           0           0           0           0           0
           0           0           0           0           0           0
           0           0           0           0
Num RLSW                                   I               52
RLSW                                       R   N=          52
  1.00000000E+00  1.00000000E+00  1.00000000E+00  1.00000000E+00  5.40000000E-01
  0.00000000E+00  0.00000000E+00  1.00000000E+00  0.00000000E+00  0.00000000E+00
  0.00000000E+00  0.00000000E+00  1.00000000E+00  0.00000000E+00  0.00000000E+00
  0.00000000E+00  0.00000000E+00  1.00000000E+00  0.00000000E+00  0.00000000E+00
  0.00000000E+00  0.00000000E+00  1.00000000E+00  0.00000000E+00  0.00000000E+00
  0.00000000E+00  0.00000000E+00  1.00000000E+00  0.00000000E+00  0.00000000E+00
  0.00000000E+00  0.00000000E+00  1.00000000E+00  0.00000000E+00  0.00000000E+00
  0.00000000E+00  0.00000000E+00  0.00000000E+00  1.00000000E+00  1.00000000E+00
  0.00000000E+00  1.00000000E+00  0.00000000E+00  0.00000000E+00  0.00000000E+00
  0.00000000E+00  0.00000000E+00  0.00000000E+00  0.00000000E+00  0.00000000E+00
  0.00000000E+00  0.00000000E+00
ECP-MxAtEC                                 I           250000
ECP-MaxLECP                                I               10
ECP-MaxAtL                                 I          2250000
ECP-MxTECP                                 I         11250000
ECP-LenNCZ                                 I                0
ECP-KFirst                                 I   N=          30
           0           0           0           0           0           0
           0           0           0           0           0           0
           0           0           0           0           0           0
           0           0           0           0           0           0
           0           0           0           0           0           0
ECP-KLast                                  I   N=          30
           0           0           0           0           0           0
           0           0           0           0           0           0
           0           0           0           0           0           0
           0           0           0           0           0           0
           0           0           0           0           0           0
ECP-LMax                                   I   N=           3
           0           0           0
ECP-LPSkip                                 I   N=           3
           1           1           1
ECP-RNFroz                                 R   N=           3
  0.00000000E+00  0.00000000E+00  0.00000000E+00
ECP-NLP                                    I                0
ECP-CLP1                                   R      0.000000000000000E+00
ECP-CLP2                                   R      0.000000000000000E+00
ECP-ZLP                                    R      0.000000000000000E+00
MxBond                                     I                2
NBond                                      I   N=           3
           2           1           1
IBond                                      I   N=           6
           2           3           1           0           1           0
RBond                                      R   N=           6
  1.00000000E+00  1.00000000E+00  1.00000000E+00  0.00000000E+00  1.00000000E+00
  0.00000000E+00
Virial Ratio                               R      2.003323055961349E+00
SCF Energy                                 R     -7.643576950245438E+01
Total Energy                               R     -7.643576950245438E+01
RMS Density                                R      4.514726073485710E-09
Job Status                                 I                1
Nuclear derivative order                   I                0
External E-field                           R   N=          35
  0.00000000E+00  0.00000000E+00  0.00000000E+00  0.00000000E+00  0.00000000E+00
  0.00000000E+00  0.00000000E+00  0.00000000E+00  0.00000000E+00  0.00000000E+00
  0.00000000E+00  0.00000000E+00  0.00000000E+00  0.00000000E+00  0.00000000E+00
  0.00000000E+00  0.00000000E+00  0.00000000E+00  0.00000000E+00  0.00000000E+00
  0.00000000E+00  0.00000000E+00  0.00000000E+00  0.00000000E+00  0.00000000E+00
  0.00000000E+00  0.00000000E+00  0.00000000E+00  0.00000000E+00  0.00000000E+00
  0.00000000E+00  0.00000000E+00  0.00000000E+00  0.00000000E+00  0.00000000E+00
IOpCl                                      I                0
IROHF                                      I                0
Alpha Orbital Energies                     R   N=         117
 -1.96249956E+01 -1.13171347E+00 -6.17620651E-01 -4.66624357E-01 -4.00888179E-01
  3.77360722E-02  8.38303444E-02  2.68092600E-01  3.00836542E-01  3.01267418E-01
  3.30003017E-01  4.16043979E-01  4.92550536E-01  5.38767380E-01  6.17667855E-01
  6.28790112E-01  7.87603695E-01  9.10662637E-01  9.38295054E-01  1.02587373E+00
  1.04420342E+00  1.27917128E+00  1.29803824E+00  1.32144359E+00  1.40131403E+00
  1.40203831E+00  1.44561134E+00  1.79291414E+00  1.91248599E+00  1.97731487E+00
  2.01011927E+00  2.06368166E+00  2.25860175E+00  2.27436839E+00  2.28157290E+00
  2.32085645E+00  2.35568596E+00  2.49669337E+00  2.54054190E+00  2.64112680E+00
  2.66519905E+00  2.89141751E+00  2.92124097E+00  3.04001067E+00  3.09434923E+00
  3.20052155E+00  3.66162018E+00  3.79431253E+00  3.80006448E+00  3.82703052E+00
  4.03022969E+00  4.04964679E+00  4.19360675E+00  4.19402534E+00  4.37603854E+00
  4.54947801E+00  4.71918868E+00  4.79532863E+00  5.23086317E+00  5.27133125E+00
  5.34436170E+00  5.68221786E+00  5.80234667E+00  5.86382648E+00  5.88757587E+00
  6.21444870E+00  6.50936621E+00  6.60362374E+00  6.95928047E+00  7.01433931E+00
  7.01465969E+00  7.03300596E+00  7.10169647E+00  7.17817399E+00  7.18756840E+00
  7.21298905E+00  7.31288688E+00  7.52875509E+00  7.62978163E+00  7.64095749E+00
  7.69210101E+00  7.72433985E+00  7.78101036E+00  7.91107444E+00  8.11263400E+00
  8.35417718E+00  8.42996992E+00  8.60323811E+00  8.61303550E+00  8.71828067E+00
  8.90126382E+00  9.55421080E+00  9.59971326E+00  1.00349824E+01  1.02298987E+01
  1.05239682E+01  1.06027335E+01  1.07182465E+01  1.08275759E+01  1.09569226E+01
  1.11189508E+01  1.12086031E+01  1.15811923E+01  1.15952556E+01  1.16791221E+01
  1.17491898E+01  1.19759527E+01  1.25188016E+01  1.32601529E+01  1.33511654E+01
  1.34082022E+01  1.38904711E+01  1.42705371E+01  1.62626774E+01  1.64073276E+01
  4.82381518E+01  2.51301888E+02
Alpha MO coefficients                      R   N=       13689
  5.68849068E-01 -1.10333096E-02  3.68622972E-01  1.61456499E-01  1.79931571E-02
 -9.87293999E-03 -4.89756841E-03  0.00000000E+00  0.00000000E+00 -1.92820142E-03
  0.00000000E+00  0.00000000E+00  1.47637797E-03  0.00000000E+00  0.00000000E+00
  3.84570777E-03  0.00000000E+00  0.00000000E+00  2.67610830E-04 -5.48873616E-06
  0.00000000E+00  0.00000000E+00 -3.01228070E-04  0.00000000E+00 -8.07909743E-05
  0.00000000E+00  0.00000000E+00  2.47495721E-04  0.00000000E+00 -2.08765167E-04
  0.00000000E+00  0.00000000E+00  1.91170420E-03  0.00000000E+00  9.99575747E-05
  0.00000000E+00  0.00000000E+00  2.22084708E-04  0.00000000E+00  0.00000000E+00
  0.00000000E+00 -4.14971720E-04  0.00000000E+00  0.00000000E+00 -9.70532563E-04
  0.00000000E+00  0.00000000E+00  0.00000000E+00  6.37527447E-05  0.00000000E+00
  0.00000000E+00  9.68299693E-05  0.00000000E+00  0.00000000E+00  0.00000000E+00
 -2.40016519E-05  0.00000000E+00  7.27848034E-05  3.50523778E-03  2.92131077E-03
 -1.30696936E-04  0.00000000E+00  8.24953299E-05  1.21624012E-04  0.00000000E+00
  1.11118149E-03  5.97404813E-04  0.00000000E+00  1.26151553E-03  8.04248830E-04
 -2.30440317E-05  0.00000000E+00  1.50282516E-05 -9.68699052E-06  0.00000000E+00
 -7.27296684E-05  0.00000000E+00 -5.77572022E-05 -1.06354184E-04  0.00000000E+00
  8.16871293E-05  0.00000000E+00 -1.55717210E-04  2.36891728E-04  0.00000000E+00
  0.00000000E+00  1.04365429E-04  7.27848034E-05  3.50523778E-03  2.92131077E-03
 -1.30696936E-04  0.00000000E+00 -8.24953299E-05  1.21624012E-04  0.00000000E+00
 -1.11118149E-03  5.97404813E-04  0.00000000E+00 -1.26151553E-03  8.04248830E-04
 -2.30440317E-05  0.00000000E+00 -1.50282516E-05 -9.68699052E-06  0.00000000E+00
 -7.27296684E-05  0.00000000E+00  5.77572022E-05 -1.06354184E-04  0.00000000E+00
  8.16871293E-05  0.00000000E+00  1.55717210E-04  2.36891728E-04  0.00000000E+00
  0.00000000E+00 -1.04365429E-04 -1.19142162E-01 -1.30324518E-02 -1.47629051E-01
 -6.36734849E-02  2.82374427E-01  4.88247099E-01  2.07121900E-01  0.00000000E+00
  0.00000000E+00 -5.22085881E-02  0.00000000E+00  0.00000000E+00 -6.28161701E-02
  0.00000000E+00  0.00000000E+00 -3.83631686E-02  0.00000000E+00  0.00000000E+00
 -3.96789764E-03  1.27193826E-04  0.00000000E+00  0.00000000E+00 -8.09037601E-04
  0.00000000E+00  1.98772403E-03  0.00000000E+00  0.00000000E+00 -1.12597880E-02
  0.00000000E+00  2.60117049E-03  0.00000000E+00  0.00000000E+00 -5.78099785E-03
  0.00000000E+00  1.00890049E-03  0.00000000E+00  0.00000000E+00  2.24483250E-03
  0.00000000E+00  0.00000000E+00  0.00000000E+00  2.47997812E-04  0.00000000E+00
  0.00000000E+00  2.13836381E-03  0.00000000E+00  0.00000000E+00  0.00000000E+00
 -5.62214104E-04  0.00000000E+00  0.00000000E+00 -8.69232377E-04  0.00000000E+00
  0.00000000E+00  0.00000000E+00  3.14466656E-04  0.00000000E+00  5.53815063E-02
  7.10448805E-02  2.61912366E-02  2.74470518E-03  0.00000000E+00  5.35411018E-03
  3.41301814E-03  0.00000000E+00  3.54863882E-03  2.15666199E-03  0.00000000E+00
  9.51388546E-04 -6.14794888E-04  9.06295090E-05  0.00000000E+00  1.25892189E-03
 -8.98686355E-04  0.00000000E+00  2.35985914E-04  0.00000000E+00 -2.64606821E-03
  1.71157034E-03  0.00000000E+00  3.27094270E-04  0.00000000E+00  5.59568741E-05
  3.92897632E-04  0.00000000E+00  0.00000000E+00  1.95543351E-04  5.53815063E-02
  7.10448805E-02  2.61912366E-02  2.74470518E-03  0.00000000E+00 -5.35411018E-03
  3.41301814E-03  0.00000000E+00 -3.54863882E-03  2.15666199E-03  0.00000000E+00
 -9.51388546E-04 -6.14794888E-04  9.06295090E-05  0.00000000E+00 -1.25892189E-03
 -8.98686355E-04  0.00000000E+00  2.35985914E-04  0.00000000E+00  2.64606821E-03
  1.71157034E-03  0.00000000E+00  3.27094270E-04  0.00000000E+00 -5.59568741E-05
  3.92897632E-04  0.00000000E+00  0.00000000E+00 -1.95543351E-04  0.00000000E+00
  0.00000000E+00  0.00000000E+00  0.00000000E+00  0.00000000E+00  0.00000000E+00
  0.00000000E+00  0.00000000E+00  2.84264956E-01  0.00000000E+00  0.00000000E+00
  2.64994357E-01  0.00000000E+00  0.00000000E+00  2.27341651E-01  0.00000000E+00
  0.00000000E+00  5.12793384E-02  0.00000000E+00  0.00000000E+00  0.00000000E+00
 -4.29458305E-03  0.00000000E+00  0.00000000E+00  0.00000000E+00  0.00000000E+00
 -1.84529105E-02  0.00000000E+00  0.00000000E+00  0.00000000E+00  0.00000000E+00
 -2.09952011E-02  0.00000000E+00  0.00000000E+00  0.00000000E+00  0.00000000E+00
  4.15428441E-04  0.00000000E+00  0.00000000E+00  0.00000000E+00 -1.94935141E-03
  0.00000000E+00  0.00000000E+00 -5.67331044E-05  0.00000000E+00  0.00000000E+00
  0.00000000E+00 -4.32180272E-03  0.00000000E+00  0.00000000E+00  7.66327401E-04
  0.00000000E+00  0.00000000E+00  0.00000000E+00  1.07651712E-03  0.00000000E+00
  0.00000000E+00 -8.60568803E-02 -1.41534537E-01 -1.25492805E-01 -2.89622719E-02
  0.00000000E+00 -3.59108506E-03 -4.30415724E-03  0.00000000E+00 -4.82669884E-03
 -9.32534489E-03  0.00000000E+00  1.75962413E-03 -5.04152001E-03 -4.30801101E-04
  0.00000000E+00 -2.10612597E-03  1.07959671E-03  0.00000000E+00 -1.60024929E-03
  0.00000000E+00 -6.87105446E-04 -7.07792564E-04  0.00000000E+00  2.74788019E-04
  0.00000000E+00 -5.09960328E-04  7.66974965E-04  0.00000000E+00  0.00000000E+00
  3.62567457E-04  8.60568803E-02  1.41534537E-01  1.25492805E-01  2.89622719E-02
  0.00000000E+00 -3.59108506E-03  4.30415724E-03  0.00000000E+00 -4.82669884E-03
  9.32534489E-03  0.00000000E+00  1.75962413E-03  5.04152001E-03  4.30801101E-04
  0.00000000E+00 -2.10612597E-03 -1.07959671E-03  0.00000000E+00  1.60024929E-03
  0.00000000E+00 -6.87105446E-04  7.07792564E-04  0.00000000E+00 -2.74788019E-04
  0.00000000E+00 -5.09960328E-04 -7.66974965E-04  0.00000000E+00  0.00000000E+00
  3.62567457E-04 -4.00133767E-02 -4.17835935E-03 -5.24264759E-02 -1.71374453E-02
  9.19000069E-02  2.07363831E-01  2.31954853E-01  0.00000000E+00  0.00000000E+00
  3.13429012E-01  0.00000000E+00  0.00000000E+00  2.87476375E-01  0.00000000E+00
  0.00000000E+00  2.42663034E-01  0.00000000E+00  0.00000000E+00  1.38598467E-01
 -2.05707155E-03  0.00000000E+00  0.00000000E+00  1.58798873E-03  0.00000000E+00
 -8.88300287E-03  0.00000000E+00  0.00000000E+00  7.17707967E-04  0.00000000E+00
 -1.12089759E-02  0.00000000E+00  0.00000000E+00 -5.98115416E-04  0.00000000E+00
 -5.70915957E-05  0.00000000E+00  0.00000000E+00 -1.54976091E-03  0.00000000E+00
  0.00000000E+00  0.00000000E+00  9.55885863E-04  0.00000000E+00  0.00000000E+00
 -2.87795279E-04  0.00000000E+00  0.00000000E+00  0.00000000E+00  1.78364857E-04
  0.00000000E+00  0.00000000E+00  4.69128633E-04  0.00000000E+00  0.00000000E+00
  0.00000000E+00  2.21991037E-04  0.00000000E+00 -4.70512535E-02 -1.01331414E-01
 -1.01007212E-01 -6.19487237E-03  0.00000000E+00 -2.98098158E-03  1.11276574E-03
  0.00000000E+00 -1.52675868E-02  2.63916490E-03  0.00000000E+00 -1.66947762E-02
  1.87053661E-02  7.15633119E-04  0.00000000E+00 -1.33727265E-03  1.50431391E-03
  0.00000000E+00  4.76395325E-03  0.00000000E+00  2.22977272E-03  4.43795797E-03
  0.00000000E+00  4.15974932E-04  0.00000000E+00  4.61681034E-04  4.14617446E-04
  0.00000000E+00  0.00000000E+00  7.27801397E-04 -4.70512535E-02 -1.01331414E-01
 -1.01007212E-01 -6.19487237E-03  0.00000000E+00  2.98098158E-03  1.11276574E-03
  0.00000000E+00  1.52675868E-02  2.63916490E-03  0.00000000E+00  1.66947762E-02
  1.87053661E-02  7.15633119E-04  0.00000000E+00  1.33727265E-03  1.50431391E-03
  0.00000000E+00  4.76395325E-03  0.00000000E+00 -2.22977272E-03  4.43795797E-03
  0.00000000E+00  4.15974932E-04  0.00000000E+00 -4.61681034E-04  4.14617446E-04
  0.00000000E+00  0.00000000E+00 -7.27801397E-04  0.00000000E+00  0.00000000E+00
  0.00000000E+00  0.00000000E+00  0.00000000E+00  0.00000000E+00  0.00000000E+00
  3.51754846E-01  0.00000000E+00  0.00000000E+00  3.27179085E-01  0.00000000E+00
  0.00000000E+00  3.09197450E-01  0.00000000E+00  0.00000000E+00  1.92135091E-01
  0.00000000E+00  0.00000000E+00  0.00000000E+00 -2.09362260E-03  0.00000000E+00
  0.00000000E+00  0.00000000E+00  0.00000000E+00 -8.13055748E-03  0.00000000E+00
  0.00000000E+00  0.00000000E+00  0.00000000E+00 -1.33852177E-02  0.00000000E+00
  0.00000000E+00  0.00000000E+00  0.00000000E+00  4.67936075E-04  0.00000000E+00
  0.00000000E+00  0.00000000E+00 -1.52962476E-03  0.00000000E+00  0.00000000E+00
  9.80680870E-04  0.00000000E+00  0.00000000E+00  0.00000000E+00 -2.93908196E-03
  0.00000000E+00  0.00000000E+00  3.08689855E-05  0.00000000E+00  0.00000000E+00
  0.00000000E+00  8.37076856E-04  0.00000000E+00  0.00000000E+00  0.00000000E+00
  0.00000000E+00  0.00000000E+00  0.00000000E+00  0.00000000E+00  3.85482463E-03
  0.00000000E+00  0.00000000E+00  1.45552395E-02  0.00000000E+00  0.00000000E+00
  3.32938560E-02  0.00000000E+00  0.00000000E+00  0.00000000E+00  7.71641971E-04
  0.00000000E+00  0.00000000E+00  9.20132630E-04  0.00000000E+00  4.20691008E-03
  0.00000000E+00  0.00000000E+00  7.22239112E-03  0.00000000E+00  2.23334505E-04
  0.00000000E+00  0.00000000E+00  7.26858558E-04 -7.36705125E-04  0.00000000E+00
  0.00000000E+00  0.00000000E+00  0.00000000E+00  0.00000000E+00  3.85482463E-03
  0.00000000E+00  0.00000000E+00  1.45552395E-02  0.00000000E+00  0.00000000E+00
  3.32938560E-02  0.00000000E+00  0.00000000E+00  0.00000000E+00  7.71641971E-04
  0.00000000E+00  0.00000000E+00 -9.20132630E-04  0.00000000E+00  4.20691008E-03
  0.00000000E+00  0.00000000E+00 -7.22239112E-03  0.00000000E+00  2.23334505E-04
  0.00000000E+00  0.00000000E+00 -7.26858558E-04 -7.36705125E-04  0.00000000E+00
 -3.48658411E-02 -5.27894433E-03 -4.05707036E-02 -3.15890651E-02  1.47866094E-01
 -1.15083090E-01  1.15536425E+00  0.00000000E+00  0.00000000E+00 -8.56239339E-02
  0.00000000E+00  0.00000000E+00 -4.36082919E-02  0.00000000E+00  0.00000000E+00
 -1.80575722E-01  0.00000000E+00  0.00000000E+00 -1.15859208E-01  5.71866103E-04
  0.00000000E+00  0.00000000E+00  7.20803766E-05  0.00000000E+00  2.26692326E-03
  0.00000000E+00  0.00000000E+00  9.14781641E-03  0.00000000E+00 -1.31911057E-02
  0.00000000E+00  0.00000000E+00 -5.03074877E-02  0.00000000E+00 -2.02733895E-03
  0.00000000E+00  0.00000000E+00 -3.31956101E-03  0.00000000E+00  0.00000000E+00
  0.00000000E+00  1.12853961E-02  0.00000000E+00  0.00000000E+00  1.84683451E-02
  0.00000000E+00  0.00000000E+00  0.00000000E+00 -1.15926675E-03  0.00000000E+00
  0.00000000E+00 -1.26921887E-03  0.00000000E+00  0.00000000E+00  0.00000000E+00
  1.43024015E-03  0.00000000E+00 -7.92142404E-03 -1.41541132E-01  3.66382956E-02
 -8.83725241E-01  0.00000000E+00 -3.51760182E-03 -3.05895488E-03  0.00000000E+00
  3.30591812E-02  1.55063560E-02  0.00000000E+00 -2.60509788E-02 -3.95337536E-02
  3.80128758E-05  0.00000000E+00 -1.08701989E-03 -2.54119485E-04  0.00000000E+00
 -8.18222100E-03  0.00000000E+00  2.10345427E-02 -1.77818041E-02  0.00000000E+00
 -2.17116630E-03  0.00000000E+00  6.27042167E-04 -4.62464574E-03  0.00000000E+00
  0.00000000E+00 -3.06916317E-03 -7.92142404E-03 -1.41541132E-01  3.66382956E-02
 -8.83725241E-01  0.00000000E+00  3.51760182E-03 -3.05895488E-03  0.00000000E+00
 -3.30591812E-02  1.55063560E-02  0.00000000E+00  2.60509788E-02 -3.95337536E-02
  3.80128758E-05  0.00000000E+00  1.08701989E-03 -2.54119485E-04  0.00000000E+00
 -8.18222100E-03  0.00000000E+00 -2.10345427E-02 -1.77818041E-02  0.00000000E+00
 -2.17116630E-03  0.00000000E+00 -6.27042167E-04 -4.62464574E-03  0.00000000E+00
  0.00000000E+00  3.06916317E-03  0.00000000E+00  0.00000000E+00  0.00000000E+00
  0.00000000E+00  0.00000000E+00  0.00000000E+00  0.00000000E+00  0.00000000E+00
  1.19551393E-01  0.00000000E+00  0.00000000E+00  1.12918615E-01  0.00000000E+00
  0.00000000E+00 -3.41297799E-01  0.00000000E+00  0.00000000E+00  8.02786432E-01
  0.00000000E+00  0.00000000E+00  0.00000000E+00 -2.48354071E-03  0.00000000E+00
  0.00000000E+00  0.00000000E+00  0.00000000E+00  1.53626646E-02  0.00000000E+00
  0.00000000E+00  0.00000000E+00  0.00000000E+00  1.09334859E-01  0.00000000E+00
  0.00000000E+00  0.00000000E+00  0.00000000E+00  1.70758822E-04  0.00000000E+00
  0.00000000E+00  0.00000000E+00 -1.24406885E-03  0.00000000E+00  0.00000000E+00
 -6.11494530E-03  0.00000000E+00  0.00000000E+00  0.00000000E+00  1.54995185E-02
  0.00000000E+00  0.00000000E+00 -1.22148626E-03  0.00000000E+00  0.00000000E+00
  0.00000000E+00 -1.22811584E-03  0.00000000E+00  0.00000000E+00  2.93120714E-03
 -7.25367412E-02 -4.11377704E-01  2.21096067E+00  0.00000000E+00  4.89670393E-03
  5.28296158E-03  0.00000000E+00 -7.25748097E-02 -6.51311586E-02  0.00000000E+00
 -7.75803474E-02 -4.83635729E-02 -3.68286548E-04  0.00000000E+00 -1.46553071E-03
  1.42037999E-03  0.00000000E+00 -5.90886069E-03  0.00000000E+00 -2.17505806E-02
  8.00000288E-03  0.00000000E+00 -4.43242121E-04  0.00000000E+00 -1.49452790E-03
  7.90204072E-04  0.00000000E+00  0.00000000E+00 -1.22058034E-04 -2.93120714E-03