test                                                                    
SP        RM062X                                                      def2QZVP            
Number of atoms                            I                3
Info1-9                                    I   N=           9
          14          14           0           0           0         111
           1          18        -502
Full Title                                 C   N=           1
test        
Route                                      C   N=           4
#p pop=(mk,npa) def2qzvp m062x charge           
Charge                                     I                0
Multiplicity                               I                1
Number of electrons                        I               10
Number of alpha electrons                  I                5
Number of beta electrons                   I                5
Number of basis functions                  I              117
Number of independent functions            I              117
Number of point charges in /Mol/           I                0
Number of translation vectors              I                0
Atomic numbers                             I   N=           3
           8           1           1
Nuclear charges                            R   N=           3
  8.00000000E+00  1.00000000E+00  1.00000000E+00
Current cartesian coordinates              R   N=           9
  4.85722573E-17 -7.19910243E-17  2.09478505E-01  0.00000000E+00 -1.48123672E+00
 -8.37914025E-01 -2.49800181E-16  1.48123672E+00 -8.37914025E-01
Number of symbols in /Mol/                 I                0
Force Field                                I                0
Atom Types                                 C   N=           3
                                    
Int Atom Types                             I   N=           3
           0           0           0
MM charges                                 R   N=           3
  0.00000000E+00  0.00000000E+00  0.00000000E+00
Integer atomic weights                     I   N=           3
          16           1           1
Real atomic weights                        R   N=           3
  1.59949146E+01  1.00782504E+00  1.00782504E+00
Atom fragment info                         I   N=           3
           0           0           0
Atom residue num                           I   N=           3
           0           0           0
Nuclear spins                              I   N=           3
           0           1           1
Nuclear ZEff                               R   N=           3
 -5.60000000E+00 -1.00000000E+00 -1.00000000E+00
Nuclear ZNuc                               R   N=           3
  8.00000000E+00  1.00000000E+00  1.00000000E+00
Nuclear QMom                               R   N=           3
  0.00000000E+00  0.00000000E+00  0.00000000E+00
Nuclear GFac                               R   N=           3
  0.00000000E+00  2.79284600E+00  2.79284600E+00
MicOpt                                     I   N=           3
          -1          -1          -1
Number of residues                         I                0
Number of secondary structures             I                0
SymInf integers                            I   N=          26
           2           4           1           1           1          -1
          -1           1          -1           1           1           1
          -1           1           0           0           0           0
           0           0           0           0           0           0
           0           0
RotTr to input orientation                 R   N=          12
 -7.38976644E-02 -2.35764251E-01 -9.68996570E-01 -4.21198873E-01  8.88115337E-01
 -1.83963741E-01  9.03952789E-01  3.94545773E-01 -1.64933286E-01 -2.09060964E-01
  2.28737951E+00  6.29601206E-02
Number of contracted shells                I               37
Number of primitive shells                 I               55
Pure/Cartesian d shells                    I                0
Pure/Cartesian f shells                    I                0
Highest angular momentum                   I                4
Largest degree of contraction              I                8
Shell types                                I   N=          37
           0           0           0           0           0           0
           0           1           1           1           1          -2
          -2          -2          -3          -3          -4           0
           0           0           0           1           1           1
          -2          -2          -3           0           0           0
           0           1           1           1          -2          -2
          -3
Number of primitives per shell             I   N=          37
           8           2           1           1           1           1
           1           5           1           1           1           1
           1           1           1           1           1           4
           1           1           1           1           1           1
           1           1           1           4           1           1
           1           1           1           1           1           1
           1
Shell to atom map                          I   N=          37
           1           1           1           1           1           1
           1           1           1           1           1           1
           1           1           1           1           1           2
           2           2           2           2           2           2
           2           2           2           3           3           3
           3           3           3           3           3           3
           3
Primitive exponents                        R   N=          55
  1.16506469E+05  1.75043497E+04  3.99345132E+03  1.13300632E+03  3.69995696E+02
  1.33620743E+02  5.20356436E+01  2.14619393E+01  8.98350513E+01  2.64280108E+01
  9.28228246E+00  4.09477285E+00  1.32553491E+00  5.18772308E-01  1.97726765E-01
  1.91152558E+02  4.52333567E+01  1.43534659E+01  5.24223718E+00  2.07924186E+00
  8.42823714E-01  3.36176949E-01  1.28639980E-01  3.77500000E+00  1.30000000E+00
  4.44000000E-01  2.66600000E+00  8.59000000E-01  1.84600000E+00  1.90691690E+02
  2.86055320E+01  6.50959430E+00  1.84124550E+00  5.98537250E-01  2.13976240E-01
  8.03162860E-02  2.29200000E+00  8.38000000E-01  2.92000000E-01  2.06200000E+00
  6.62000000E-01  1.39700000E+00  1.90691690E+02  2.86055320E+01  6.50959430E+00
  1.84124550E+00  5.98537250E-01  2.13976240E-01  8.03162860E-02  2.29200000E+00
  8.38000000E-01  2.92000000E-01  2.06200000E+00  6.62000000E-01  1.39700000E+00
Contraction coefficients                   R   N=          55
  7.19875758E-05  5.57148772E-04  2.91300317E-03  1.21720511E-02  4.30037618E-02
  1.29647624E-01  3.19696086E-01  5.89314588E-01  9.48480528E-02  9.25363788E-01
  1.00000000E+00  1.00000000E+00  1.00000000E+00  1.00000000E+00  1.00000000E+00
  2.53595741E-03  2.02338243E-02  9.45180200E-02  3.09154328E-01  6.84689495E-01
  1.00000000E+00  1.00000000E+00  1.00000000E+00  1.00000000E+00  1.00000000E+00
  1.00000000E+00  1.00000000E+00  1.00000000E+00  1.00000000E+00  5.34263696E-03
  4.12523382E-02  2.10993526E-01  8.12128546E-01  1.00000000E+00  1.00000000E+00
  1.00000000E+00  1.00000000E+00  1.00000000E+00  1.00000000E+00  1.00000000E+00
  1.00000000E+00  1.00000000E+00  5.34263696E-03  4.12523382E-02  2.10993526E-01
  8.12128546E-01  1.00000000E+00  1.00000000E+00  1.00000000E+00  1.00000000E+00
  1.00000000E+00  1.00000000E+00  1.00000000E+00  1.00000000E+00  1.00000000E+00
Coordinates of each shell                  R   N=         111
  5.81419650E-18  2.94343698E-17  2.09478505E-01  5.81419650E-18  2.94343698E-17
  2.09478505E-01  5.81419650E-18  2.94343698E-17  2.09478505E-01  5.81419650E-18
  2.94343698E-17  2.09478505E-01  5.81419650E-18  2.94343698E-17  2.09478505E-01
  5.81419650E-18  2.94343698E-17  2.09478505E-01  5.81419650E-18  2.94343698E-17
  2.09478505E-01  5.81419650E-18  2.94343698E-17  2.09478505E-01  5.81419650E-18
  2.94343698E-17  2.09478505E-01  5.81419650E-18  2.94343698E-17  2.09478505E-01
  5.81419650E-18  2.94343698E-17  2.09478505E-01  5.81419650E-18  2.94343698E-17
  2.09478505E-01  5.81419650E-18  2.94343698E-17  2.09478505E-01  5.81419650E-18
  2.94343698E-17  2.09478505E-01  5.81419650E-18  2.94343698E-17  2.09478505E-01
  5.81419650E-18  2.94343698E-17  2.09478505E-01  5.81419650E-18  2.94343698E-17
  2.09478505E-01  7.95246581E-17 -1.48123672E+00 -8.37914025E-01  7.95246581E-17
 -1.48123672E+00 -8.37914025E-01  7.95246581E-17 -1.48123672E+00 -8.37914025E-01
  7.95246581E-17 -1.48123672E+00 -8.37914025E-01  7.95246581E-17 -1.48123672E+00
 -8.37914025E-01  7.95246581E-17 -1.48123672E+00 -8.37914025E-01  7.95246581E-17
 -1.48123672E+00 -8.37914025E-01  7.95246581E-17 -1.48123672E+00 -8.37914025E-01
  7.95246581E-17 -1.48123672E+00 -8.37914025E-01  7.95246581E-17 -1.48123672E+00
 -8.37914025E-01 -1.02781444E-16  1.48123672E+00 -8.37914025E-01 -1.02781444E-16
  1.48123672E+00 -8.37914025E-01 -1.02781444E-16  1.48123672E+00 -8.37914025E-01
 -1.02781444E-16  1.48123672E+00 -8.37914025E-01 -1.02781444E-16  1.48123672E+00
 -8.37914025E-01 -1.02781444E-16  1.48123672E+00 -8.37914025E-01 -1.02781444E-16
  1.48123672E+00 -8.37914025E-01 -1.02781444E-16  1.48123672E+00 -8.37914025E-01
 -1.02781444E-16  1.48123672E+00 -8.37914025E-01 -1.02781444E-16  1.48123672E+00
 -8.37914025E-01
Num ILSW                                   I              100
ILSW                                       I   N=         100
           0           0           0           0           2           0
           0           0           0           0        4336          -1
           5           0           0           0           0           0
           0           0           0           0           0           0
           1           0           0           0           0           0
           0           0      100000           0          -1           0
           0           0           0           0           0           0
           0           0           0           1           0           0
           0 -2000000000           1           0           0           0
           0           1           4          52           0           0
           0           1          55           0           0           0
           0           0           0           3           0           1
           0           0           0           0           0           0
           0           0           0           0           0           0
           0           0           0           0           0           0
           0           0           0           0           0           0
           0           0           0           0
Num RLSW                                   I               52
RLSW                                       R   N=          52
  1.00000000E+00  1.00000000E+00  1.00000000E+00  1.00000000E+00  5.40000000E-01
  0.00000000E+00  0.00000000E+00  1.00000000E+00  0.00000000E+00  0.00000000E+00
  0.00000000E+00  0.00000000E+00  1.00000000E+00  0.00000000E+00  0.00000000E+00
  0.00000000E+00  0.00000000E+00  1.00000000E+00  0.00000000E+00  0.00000000E+00
  0.00000000E+00  0.00000000E+00  1.00000000E+00  0.00000000E+00  0.00000000E+00
  0.00000000E+00  0.00000000E+00  1.00000000E+00  0.00000000E+00  0.00000000E+00
  0.00000000E+00  0.00000000E+00  1.00000000E+00  0.00000000E+00  0.00000000E+00
  0.00000000E+00  0.00000000E+00  0.00000000E+00  1.00000000E+00  1.00000000E+00
  0.00000000E+00  1.00000000E+00  0.00000000E+00  0.00000000E+00  0.00000000E+00
  0.00000000E+00  0.00000000E+00  0.00000000E+00  0.00000000E+00  0.00000000E+00
  0.00000000E+00  0.00000000E+00
ECP-MxAtEC                                 I           250000
ECP-MaxLECP                                I               10
ECP-MaxAtL                                 I          2250000
ECP-MxTECP                                 I         11250000
ECP-LenNCZ                                 I                0
ECP-KFirst                                 I   N=          30
           0           0           0           0           0           0
           0           0           0           0           0           0
           0           0           0           0           0           0
           0           0           0           0           0           0
           0           0           0           0           0           0
ECP-KLast                                  I   N=          30
           0           0           0           0           0           0
           0           0           0           0           0           0
           0           0           0           0           0           0
           0           0           0           0           0           0
           0           0           0           0           0           0
ECP-LMax                                   I   N=           3
           0           0           0
ECP-LPSkip                                 I   N=           3
           1           1           1
ECP-RNFroz                                 R   N=           3
  0.00000000E+00  0.00000000E+00  0.00000000E+00
ECP-NLP                                    I                0
ECP-CLP1                                   R      0.000000000000000E+00
ECP-CLP2                                   R      0.000000000000000E+00
ECP-ZLP                                    R      0.000000000000000E+00
MxBond                                     I                2
NBond                                      I   N=           3
           2           1           1
IBond                                      I   N=           6
           2           3           1           0           1           0
RBond                                      R   N=           6
  1.00000000E+00  1.00000000E+00  1.00000000E+00  0.00000000E+00  1.00000000E+00
  0.00000000E+00
Virial Ratio                               R      2.006566337631491E+00
SCF Energy                                 R     -7.665687371958768E+01
Total Energy                               R     -7.665687371958768E+01
RMS Density                                R      3.799213685503250E-09
Job Status                                 I                1
Nuclear derivative order                   I                0
External E-field                           R   N=          35
  0.00000000E+00  0.00000000E+00  0.00000000E+00  0.00000000E+00  0.00000000E+00
  0.00000000E+00  0.00000000E+00  0.00000000E+00  0.00000000E+00  0.00000000E+00
  0.00000000E+00  0.00000000E+00  0.00000000E+00  0.00000000E+00  0.00000000E+00
  0.00000000E+00  0.00000000E+00  0.00000000E+00  0.00000000E+00  0.00000000E+00
  0.00000000E+00  0.00000000E+00  0.00000000E+00  0.00000000E+00  0.00000000E+00
  0.00000000E+00  0.00000000E+00  0.00000000E+00  0.00000000E+00  0.00000000E+00
  0.00000000E+00  0.00000000E+00  0.00000000E+00  0.00000000E+00  0.00000000E+00
IOpCl                                      I                0
IROHF                                      I                0
Alpha Orbital Energies                     R   N=         117
 -1.96760206E+01 -1.16889181E+00 -6.49450793E-01 -4.98879613E-01 -4.33446016E-01
 -1.59528354E-01  1.60791765E-01  1.97804560E-01  2.04956085E-01  2.71766086E-01
  3.56320690E-01  4.51902866E-01  4.68616884E-01  4.84603548E-01  6.31082667E-01
  6.81890484E-01  8.02791052E-01  8.24471907E-01  9.37571208E-01  1.03767457E+00
  1.12893389E+00  1.26360630E+00  1.27790279E+00  1.30828393E+00  1.35253858E+00
  1.40078475E+00  1.51886892E+00  1.78368651E+00  1.86381152E+00  1.90763314E+00
  2.01714243E+00  2.04836148E+00  2.14356501E+00  2.23935623E+00  2.26179225E+00
  2.33660958E+00  2.40795048E+00  2.46665765E+00  2.56211892E+00  2.61992811E+00
  2.73890796E+00  2.85406654E+00  2.88505834E+00  3.03965650E+00  3.12299265E+00
  3.19398648E+00  3.65148615E+00  3.77033740E+00  3.78017809E+00  3.80306705E+00
  4.01578877E+00  4.02499259E+00  4.16685794E+00  4.16951741E+00  4.34247882E+00
  4.52919287E+00  4.68500696E+00  4.78474553E+00  5.18222241E+00  5.19960948E+00
  5.32720034E+00  5.62139185E+00  5.74389899E+00  5.91995266E+00  5.95069175E+00
  6.18461362E+00  6.43616081E+00  6.62137557E+00  6.86601565E+00  6.88783164E+00
  6.93791377E+00  7.01913961E+00  7.07281667E+00  7.16043849E+00  7.20615955E+00
  7.26071096E+00  7.39499864E+00  7.43999540E+00  7.49906678E+00  7.57579051E+00
  7.69195892E+00  7.78145545E+00  7.84435610E+00  7.91842382E+00  8.07722439E+00
  8.35940280E+00  8.37682039E+00  8.56702732E+00  8.60923493E+00  8.71953346E+00
  8.89660313E+00  9.52545455E+00  9.57918209E+00  1.00056682E+01  1.02027002E+01
  1.04894282E+01  1.05735560E+01  1.06918180E+01  1.08217657E+01  1.09281271E+01
  1.10900563E+01  1.11819417E+01  1.15451917E+01  1.15653865E+01  1.16495494E+01
  1.17328352E+01  1.19455921E+01  1.24858108E+01  1.32177082E+01  1.33280466E+01
  1.33714527E+01  1.38594718E+01  1.42368736E+01  1.62044148E+01  1.63863812E+01
  4.82053464E+01  2.51257921E+02
Alpha MO coefficients                      R   N=       13689
  5.68816265E-01 -1.10028912E-02  3.68469800E-01  1.61797022E-01  1.76588073E-02
 -9.83083808E-03 -4.84035343E-03 -3.21119011E-04  7.57153582E-04 -1.97270429E-03
  2.65866879E-04 -1.28020986E-03  1.57355655E-03 -2.91725678E-05 -8.65591959E-04
  3.75815969E-03  3.22642242E-05 -1.39125752E-04  2.69389340E-04 -1.93160299E-05
  3.62297922E-05 -2.24628161E-04 -3.61676829E-04 -5.92640860E-05 -6.78727161E-05
 -5.40344870E-05  4.71304235E-04  3.16292430E-04  5.13760875E-05 -1.94947270E-04
 -5.52100980E-05  4.86806175E-04  1.88710495E-03  5.19458057E-06  1.02477788E-04
 -2.27408475E-06 -2.98858043E-06  2.21935485E-04  5.98819840E-06  6.17610149E-06
  9.16742857E-06 -4.23617531E-04  1.14110490E-05 -4.23039995E-05 -9.76744356E-04
 -1.03573517E-05 -5.40875669E-05  1.73387180E-04  6.22911413E-05  3.57754447E-06
 -3.25247216E-05  9.59920275E-05 -1.26270187E-06  1.36378846E-05 -5.03533768E-05
 -2.56456036E-05  4.77301842E-06  1.41548925E-04  2.42482428E-03  2.30754362E-03
 -1.44968222E-04  8.37152177E-06  6.92111363E-05  1.20220309E-04 -5.53496621E-05
  6.69142299E-04  2.23096357E-04 -2.85732689E-05  9.82299643E-04  5.66223527E-04
 -3.40969010E-05 -6.00198721E-06 -5.90360020E-05  3.86812925E-05 -7.01920623E-06
 -1.21097277E-04 -3.24953362E-05 -2.11812438E-04 -3.73436211E-05 -4.23702840E-05
  7.36802461E-05 -6.51129770E-06 -1.82399115E-04  2.51132260E-04 -1.70140177E-05
  1.46013133E-05  1.03018986E-04 -2.55405900E-05  4.63929539E-03  3.45254335E-03
 -1.03637777E-04  1.32175971E-05 -8.45138738E-05  1.08767326E-04 -7.29666874E-05
 -1.63172259E-03  1.04991738E-03 -3.90711413E-05 -1.50624916E-03  1.03496040E-03
 -1.01067834E-05 -6.04323309E-06 -1.07488784E-04 -7.04645009E-05  8.33648403E-06
 -1.81026131E-05 -4.35098065E-05 -1.58259512E-04 -2.05213508E-04  5.59640679E-05
  7.77392084E-05 -7.12113860E-06  1.13359728E-04  1.97372890E-04  2.30713205E-05
  1.96079117E-05 -9.24343579E-05 -1.19163815E-01 -1.32537178E-02 -1.47377093E-01
 -6.45901851E-02  2.84786730E-01  5.01912723E-01  1.74754164E-01 -2.91451177E-03
  1.54371480E-02 -5.27769814E-02 -4.52617446E-03  2.36067751E-02 -6.50965872E-02
  5.47663809E-04  1.99379507E-02 -3.93132731E-02 -1.88520603E-03  4.37194075E-03
 -1.21378734E-03  2.71259482E-04 -8.20157460E-05 -1.61391172E-04 -6.64928379E-04
  6.93509747E-05  1.14388941E-03  1.39257635E-03 -4.48850743E-03 -1.29561543E-02
 -1.21600286E-03  5.97057513E-03 -6.92990286E-04 -3.20153130E-03 -1.59317764E-03
  1.50978097E-03  1.09517121E-03  5.17218374E-05  9.75849221E-05  2.37492855E-03
  6.04453690E-05  2.09379914E-04 -3.17949213E-04  2.58090556E-04 -8.29769494E-04
 -8.73975815E-04  2.11804643E-03  4.18113900E-04 -3.23315780E-04 -6.85126164E-04
 -5.83512208E-04  9.97526934E-05  3.72018717E-04 -8.93060467E-04 -9.79722008E-05
 -7.98965151E-05  1.49911164E-04  2.55324782E-04  2.66310261E-05  4.62332668E-02
  5.80463516E-02  2.44725686E-02 -7.72676108E-04 -9.18327592E-06  5.27986721E-03
  2.60829025E-03 -1.31568130E-03  6.44995109E-03  4.29218702E-03 -3.52336381E-03
  1.50407200E-02 -2.02313734E-03  2.61013630E-04  1.59975726E-04  9.62213492E-04
 -4.94840078E-04 -6.89059750E-05  5.44425333E-04 -1.55229937E-03  9.09923200E-04
  3.32394923E-04  7.84030570E-04  3.92539911E-04 -1.73874158E-04  5.29132961E-04
  3.93979880E-04  9.36961450E-05  5.60528990E-06  2.65687927E-04  6.45913945E-02
  7.37989095E-02  5.72316736E-02  8.54906099E-03 -8.53401376E-04 -6.18082125E-03
  5.44853704E-03  1.64719122E-03 -4.47003793E-04 -3.21677576E-03 -1.39962019E-02
  2.65499241E-02  9.05202870E-03  2.23937033E-04  2.34713561E-04 -1.61091573E-03
 -7.03564303E-04  6.83659159E-04 -6.25885684E-04 -2.30639837E-03  8.48860344E-03
  2.67557527E-03 -3.24024311E-03  4.65946735E-04 -1.83060272E-04  5.63470906E-04
  9.09433064E-04 -2.72621739E-04  7.52501474E-05 -5.91548501E-04 -2.15720992E-02
 -2.36188867E-03 -2.76574274E-02 -1.01947343E-02  4.05769807E-02  1.39247930E-01
  4.49170972E-01 -8.24494723E-03 -2.68697507E-01 -8.37043912E-03 -1.01903831E-03
 -2.74602748E-01 -2.03339159E-02 -3.25838778E-02 -1.77378603E-01 -6.62992202E-02
  1.28275181E-03 -2.55274198E-02 -5.71393834E-02 -1.87762391E-04  3.05251981E-04
  4.27633451E-03  9.23608160E-04 -7.44782499E-05  5.87492037E-03 -1.20573713E-03
  1.99443909E-02  1.21383441E-03  3.65733165E-03 -2.39622929E-02  6.96950622E-03
  1.16243529E-02 -4.77771967E-02 -1.02450141E-02 -6.30067951E-04 -2.09168077E-04
 -7.05742481E-04 -6.55392703E-04 -3.59670370E-04 -6.35870458E-04  2.73763670E-03
  6.12297974E-03  8.93758230E-04  2.27172112E-03  9.87998021E-03  1.42982571E-04
  2.72303571E-03  1.39965634E-03 -5.98402085E-04 -1.70421347E-04 -7.24366957E-04
 -7.17897905E-04  2.50612188E-04 -4.32464811E-04 -8.32236846E-04  9.79566443E-04
  1.64024483E-04  7.94685399E-02  9.27788070E-02 -1.60832254E-01  5.76279573E-02
 -8.55080379E-04  5.13271304E-03  5.98866578E-03  1.12940837E-03 -7.54175783E-04
 -1.11889048E-02 -1.44606431E-02 -4.83679938E-02 -6.15252963E-02  1.14252447E-03
  5.50217456E-04  1.16933205E-04 -9.59306362E-04 -1.44504872E-04 -7.14962993E-03
 -2.66243597E-03 -8.37049982E-03  1.13724165E-02  2.82654069E-03  6.90172617E-04
 -8.95120527E-05 -8.23004767E-04  1.23091869E-03  6.95478519E-04  2.13885118E-04
  7.98450778E-04 -9.07266491E-02 -1.83862524E-01 -3.97097888E-01 -1.23032269E-01
  2.91655711E-03 -3.24536854E-04 -7.25825220E-03 -8.39244759E-03  3.10225226E-02
 -1.16600381E-02  6.24864860E-02 -8.28590619E-02 -9.38796821E-02 -7.56430621E-04
 -1.05582390E-03  4.42904956E-03  6.39352282E-04 -2.38750155E-03 -6.10068756E-03
  9.49385492E-03 -3.82622194E-03  2.02087881E-03  7.59006743E-03 -2.37476151E-05
  5.60886776E-04  1.11565511E-03  1.42526254E-04  6.30687760E-06 -1.13756392E-03
  1.48738199E-03 -4.03768040E-02 -4.39287559E-03 -5.24432866E-02 -1.86133679E-02
  9.68674514E-02  1.92723636E-01  2.83830502E-01 -1.59941120E-02  3.92714130E-02
  3.14025740E-01 -9.80360937E-03  2.98312498E-02  2.88720229E-01 -3.07960160E-02
  5.80951127E-02  2.34233680E-01 -8.98098664E-03  9.58187790E-02  1.17755133E-01
 -2.39127470E-03 -2.06785754E-04  1.07480263E-03  1.35092407E-03 -2.75360977E-04
 -8.20092590E-03 -1.00031949E-03 -1.23821001E-03  1.56349365E-03  7.30139366E-04
 -1.92031620E-02 -5.03461603E-04 -5.06373790E-04 -1.30874946E-02 -5.68718693E-03
 -3.58749005E-04  6.86222018E-05 -4.44537606E-04 -2.04764373E-03 -2.03847123E-04
 -2.12890275E-04  1.47778948E-04  2.87646514E-03  6.91672991E-04  2.13222751E-03
  2.39276795E-03  1.45110419E-04  1.63725986E-03 -1.50700778E-03  2.49653704E-04
 -4.81939409E-05 -2.90653154E-05  6.21547897E-04  4.27695363E-05 -1.28449018E-04
  3.23393761E-04  4.51831603E-04  1.87956827E-04 -4.67390428E-02 -9.11439067E-02
 -6.03368289E-02  5.68907123E-02  2.08958397E-04 -4.14033937E-03  1.19408921E-03
 -2.95292173E-04 -1.47873496E-02 -2.34104058E-03  7.90731296E-03 -3.33063549E-02
  1.14782292E-02  9.79933966E-04  8.95620042E-05 -1.04082810E-03  7.21185442E-04
 -8.98278867E-05 -1.17158857E-03 -3.37527935E-04  1.03759564E-03  4.27164202E-03
 -6.20220691E-04 -3.05862203E-04 -8.77870219E-05 -3.83779884E-05 -5.02831678E-05
 -3.01967747E-05 -2.63416346E-05  3.02225984E-04 -4.81725607E-02 -1.12229281E-01
 -1.97114425E-01 -9.51956618E-02  1.27396975E-03  1.29186590E-03  4.20617181E-04
 -3.80362777E-03  2.56200746E-02  4.44364229E-03  2.65223686E-02 -2.93216721E-02
  1.63727724E-02  2.10621906E-04  1.36697199E-04  1.78344943E-03  1.56423659E-03
 -7.73745600E-04  9.46058936E-03  5.22482834E-04 -3.21357482E-03  5.68064189E-03
  2.40524276E-03  3.77250798E-04 -9.61095183E-05 -6.41573403E-04 -1.47033160E-04
 -4.55405498E-04 -4.44889173E-04 -3.02240101E-04 -6.67928989E-03 -7.01796086E-04
 -8.81562608E-03 -2.58999012E-03  9.96340348E-03  5.47598899E-02  1.57436659E-01
  3.51866956E-01  1.66068218E-02  1.51301409E-03  3.32527479E-01  5.42737284E-03
 -5.58407128E-03  2.80670865E-01  4.98134556E-02 -4.40804014E-03  1.76613187E-01
  2.20446757E-02 -1.22183852E-02  1.25136362E-04 -2.03868684E-03  4.16642840E-05
 -3.57869142E-04  1.03801621E-03  1.42160587E-03 -9.22636923E-03 -2.61320478E-04
 -1.31121035E-03  2.86957307E-03 -1.83411845E-02 -7.76966389E-03 -1.00318412E-02
 -3.25243845E-02  2.41572585E-04 -4.04996540E-04  3.66137133E-04 -6.49655176E-05
 -1.12880075E-06 -5.65182604E-04 -1.99919012E-03  1.25742548E-04  4.67443277E-03
  1.55636325E-03  1.22229721E-03  4.59649656E-03  6.59787899E-04 -7.18255269E-07
 -2.67443441E-03 -1.41420621E-04 -7.03489475E-05  7.99380690E-05  5.37505890E-05
  3.00107128E-04  5.04226469E-04  3.13717800E-04  6.05153863E-04  2.23472483E-06
 -2.01261102E-03 -6.45051011E-03 -6.73341682E-02  2.90401586E-02  1.93465695E-03
 -6.61414756E-05  9.94154653E-04  2.04939479E-02 -1.73500496E-03 -9.52723774E-03
 -3.08575805E-03 -1.91486158E-02 -2.15275838E-02  1.05997065E-04  1.78450070E-03
 -3.73649754E-04 -1.19890228E-04  1.08854196E-03 -4.80325673E-03 -7.07718858E-04
 -6.89167642E-03  1.19219298E-03  8.54161802E-03  4.11932036E-04  3.56818894E-05
 -1.14162118E-03  3.73642325E-04  1.06370893E-03 -5.81184900E-04  3.93868837E-04
 -8.10719114E-04 -2.15574004E-02 -9.68114462E-02 -1.15216986E-01  7.07351020E-03
 -2.79331661E-03 -3.00137018E-04  4.75349685E-03  1.76391813E-02 -3.50324029E-03
  1.10564206E-01 -4.20549362E-02 -4.87662084E-02 -8.26505536E-05 -5.35004170E-04
  7.59779933E-04  5.00086080E-04 -2.57683215E-03 -4.42825570E-03  1.51188383E-02
  1.82198597E-03 -5.50824660E-03 -4.43659890E-03 -1.55455830E-04  6.35445019E-04
  9.42784786E-04 -6.05139426E-04 -1.43174127E-03 -2.03909139E-03  6.20389418E-04
 -1.71065841E-02 -3.15971538E-03 -1.81193029E-02 -1.81107905E-02  2.30605657E-02
  1.05841626E-01  2.08735711E+00 -5.62569650E-02  1.43537679E-01 -7.29075209E-02
 -2.72222218E-02  7.08628419E-02 -1.11392848E-01 -2.03516592E-01  1.66773538E-01
 -3.43595914E-01  2.82168767E-02  2.76437432E-01 -2.86047612E-01 -9.45765017E-04
  1.03981911E-03 -1.43471110E-03  7.01919895E-04 -1.49820547E-03  9.92526555E-03
 -2.01108437E-03  1.11049042E-03 -5.44861234E-03  6.38518121E-03 -1.46941047E-01
  4.45535942E-02 -1.53539455E-02 -2.81844788E-01 -6.91862525E-02 -2.94402049E-03
 -4.01607690E-04 -2.78095303E-04 -2.76800523E-03 -7.67938723E-04 -1.36376524E-03
  1.55424619E-03  4.42474662E-02  4.25426224E-04 -6.89071549E-04  5.58265981E-02
  1.05417302E-02  1.68615019E-02 -1.42908013E-02 -1.53682241E-03 -5.31212228E-04
  7.40205013E-04 -2.92402891E-04 -2.32422948E-04 -2.35226251E-03  1.19802154E-03
  4.88219837E-03  1.53955342E-03 -1.41560368E-02 -2.15177715E-01 -1.05835624E+00
  5.73973997E-01 -2.09606569E-03  4.80718833E-04  8.05933851E-03  5.55054466E-03
 -5.60586730E-02 -1.09395573E-01 -5.50912619E-03 -3.33739090E-01 -2.26891103E-01
  5.01466970E-04  1.42780924E-04 -5.03106790E-03 -1.13339065E-03 -1.79622135E-04
 -3.44298308E-02  7.59766432E-04 -5.98781837E-02  3.09641081E-02  9.92784004E-04
  2.06790488E-03  5.12150091E-04 -6.99097262E-03  3.32641555E-03  1.67462093E-04
 -2.38419648E-04  1.72356738E-03  1.24003292E-02 -2.17813931E-01 -6.07258705E-01
 -1.52127733E+00  6.92351532E-03 -2.02061010E-02 -3.76727443E-03 -2.30096374E-02
  1.24994173E-01 -3.31445530E-02  2.19169987E-01 -2.73723389E-01 -3.42312246E-01
  1.00613027E-03 -3.97814666E-03  7.43754530E-03  1.38560169E-03 -5.19444140E-03
 -5.11377455E-02  3.79892253E-02  7.08748912E-03 -2.32712318E-02 -6.25382929E-03
 -3.67392666E-03  1.70093756E-03  8.23664644E-03 -3.65186820E-03 -4.48721718E-03
 -5.56443082E-03  9.00284387E-03 -1.57293279E-02 -2.68069337E-03 -1.71628152E-02
 -2.12628075E-02  1.85059664E-01 -5.48581398E-01 -2.05742064E+00 -1.49564138E-02
 -1.01323818E-01 -5.48481627E-02 -5.28106293E-03 -7.92741031E-02  7.81650432E-02
 -6.72479135E-02 -8.24323159E-02  3.50061029E-01  1.46424113E-01 -3.27051525E-01
  6.11519225E-01 -2.99081536E-05 -7.46448154E-04 -4.27355346E-04 -2.81995870E-03
  6.54966143E-04 -2.89459846E-03  5.08828267E-03 -1.71238947E-03  2.09742812E-02
 -5.08789819E-03  1.40024920E-01  9.09998651E-04 -5.45957503E-04  3.15956619E-01
  4.27902095E-02  6.65229333E-04  3.85136487E-04  3.14766382E-04 -1.64661132E-03
  6.06416082E-04  2.31376692E-04 -3.37849103E-04 -4.17403601E-02 -3.61097387E-03
 -5.44494584E-03 -4.70245304E-02 -6.27023987E-03  2.00492526E-03  2.89589927E-03
  9.16453522E-04  5.68086087E-05  6.81420839E-04 -6.90109322E-04  1.36198077E-04
 -8.52628635E-04 -3.34193882E-04 -4.13528845E-03 -9.42879241E-04 -4.23868963E-03
  1.25548325E-01  1.90780170E+00 -1.55192749E+00  1.24981396E-03 -1.19510891E-02
 -9.93194051E-03  1.15211790E-03  1.46712237E-01  1.50048250E-01  6.09378990E-02
  3.39498366E-01  3.99828237E-01 -1.26558623E-03 -5.01546581E-04  3.78526994E-03
 -2.28235600E-03 -1.12165463E-04  4.57147378E-02  1.02080089E-02  1.17323133E-01
 -4.77719961E-02  1.27300475E-02 -3.33957244E-03  3.47205034E-04  1.24512316E-02
 -1.02009591E-02  2.29017056E-03 -2.21355270E-03 -3.11048567E-03  1.84795060E-02